 Entering Gaussian System, Link 0=g16
 Input=Bound Higher Theory.txt
 Output=Bound Higher Theory.log
 Initial command:
 /usr/local/gaussian16/g16/l1.exe "/Users/santisg/Gau-96537.inp" -scrdir="/Users/santisg/"
 Entering Link 1 = /usr/local/gaussian16/g16/l1.exe PID=     96538.
  
 Copyright (c) 1988-2017, Gaussian, Inc.  All Rights Reserved.
  
 This is part of the Gaussian(R) 16 program.  It is based on
 the Gaussian(R) 09 system (copyright 2009, Gaussian, Inc.),
 the Gaussian(R) 03 system (copyright 2003, Gaussian, Inc.),
 the Gaussian(R) 98 system (copyright 1998, Gaussian, Inc.),
 the Gaussian(R) 94 system (copyright 1995, Gaussian, Inc.),
 the Gaussian 92(TM) system (copyright 1992, Gaussian, Inc.),
 the Gaussian 90(TM) system (copyright 1990, Gaussian, Inc.),
 the Gaussian 88(TM) system (copyright 1988, Gaussian, Inc.),
 the Gaussian 86(TM) system (copyright 1986, Carnegie Mellon
 University), and the Gaussian 82(TM) system (copyright 1983,
 Carnegie Mellon University). Gaussian is a federally registered
 trademark of Gaussian, Inc.
  
 This software contains proprietary and confidential information,
 including trade secrets, belonging to Gaussian, Inc.
  
 This software is provided under written license and may be
 used, copied, transmitted, or stored only in accord with that
 written license.
  
 The following legend is applicable only to US Government
 contracts under FAR:
  
                    RESTRICTED RIGHTS LEGEND
  
 Use, reproduction and disclosure by the US Government is
 subject to restrictions as set forth in subparagraphs (a)
 and (c) of the Commercial Computer Software - Restricted
 Rights clause in FAR 52.227-19.
  
 Gaussian, Inc.
 340 Quinnipiac St., Bldg. 40, Wallingford CT 06492
  
  
 ---------------------------------------------------------------
 Warning -- This program may not be used in any manner that
 competes with the business of Gaussian, Inc. or will provide
 assistance to any competitor of Gaussian, Inc.  The licensee
 of this program is prohibited from giving any competitor of
 Gaussian, Inc. access to this program.  By using this program,
 the user acknowledges that Gaussian, Inc. is engaged in the
 business of creating and licensing software in the field of
 computational chemistry and represents and warrants to the
 licensee that it is not a competitor of Gaussian, Inc. and that
 it will not use this program in any manner prohibited above.
 ---------------------------------------------------------------
  

 Cite this work as:
 Gaussian 16, Revision B.01,
 M. J. Frisch, G. W. Trucks, H. B. Schlegel, G. E. Scuseria, 
 M. A. Robb, J. R. Cheeseman, G. Scalmani, V. Barone, 
 G. A. Petersson, H. Nakatsuji, X. Li, M. Caricato, A. V. Marenich, 
 J. Bloino, B. G. Janesko, R. Gomperts, B. Mennucci, H. P. Hratchian, 
 J. V. Ortiz, A. F. Izmaylov, J. L. Sonnenberg, D. Williams-Young, 
 F. Ding, F. Lipparini, F. Egidi, J. Goings, B. Peng, A. Petrone, 
 T. Henderson, D. Ranasinghe, V. G. Zakrzewski, J. Gao, N. Rega, 
 G. Zheng, W. Liang, M. Hada, M. Ehara, K. Toyota, R. Fukuda, 
 J. Hasegawa, M. Ishida, T. Nakajima, Y. Honda, O. Kitao, H. Nakai, 
 T. Vreven, K. Throssell, J. A. Montgomery, Jr., J. E. Peralta, 
 F. Ogliaro, M. J. Bearpark, J. J. Heyd, E. N. Brothers, K. N. Kudin, 
 V. N. Staroverov, T. A. Keith, R. Kobayashi, J. Normand, 
 K. Raghavachari, A. P. Rendell, J. C. Burant, S. S. Iyengar, 
 J. Tomasi, M. Cossi, J. M. Millam, M. Klene, C. Adamo, R. Cammi, 
 J. W. Ochterski, R. L. Martin, K. Morokuma, O. Farkas, 
 J. B. Foresman, and D. J. Fox, Gaussian, Inc., Wallingford CT, 2016.
 
 ******************************************
 Gaussian 16:  EM64M-G16RevB.01 20-Dec-2017
                24-Jul-2018 
 ******************************************
 %nproc=2
 Will use up to    2 processors via shared memory.
 %mem=4gb
 -------------------------------------------
 # MP2 def2TZVP opt(noeigen,calcfc,z-matrix)
 -------------------------------------------
 1/10=4,11=1,18=40,38=1/1,3;
 2/12=2,17=6,18=5,29=3,40=1/2;
 3/5=44,7=101,11=9,25=1,30=1,71=2,140=1/1,2,3;
 4//1;
 5/5=2,38=5/2;
 8/6=3,8=1,10=1,19=11,30=-1/1;
 9/15=3,16=-3/6;
 11/6=1,8=1,15=11,17=12,24=-1,27=1,28=-2,29=300,32=6,42=3/1,2,10;
 10/6=2,21=1/2;
 8/6=4,8=1,10=1,19=11,30=-1/11,4;
 10/5=1,20=4/2;
 11/12=2,14=11,16=1,17=2,28=-2,42=3,76=2/2,10,12;
 6/7=2,8=2,9=2,10=2/1;
 7/10=1,12=2,25=1,44=2/1,2,3,16;
 1/10=4,11=1,18=40/3(2);
 2/29=3/2;
 99//99;
 2/29=3/2;
 3/5=44,7=101,11=9,25=1,30=1,71=1/1,2,3;
 4/5=5,16=3,69=1/1;
 5/5=2,38=5/2;
 8/6=4,10=1/1;
 9/15=2,16=-3/6;
 10/5=1/2;
 7/12=2/1,2,3,16;
 1/11=1,18=40/3(-8);
 2/29=3/2;
 6/7=2,8=2,9=2,10=2/1;
 99/9=10/99;
 -----------
 TiO21aHCOOH
 -----------
 Symbolic Z-matrix:
 Charge =  0 Multiplicity = 1
 Ti1
 O2                   1    R1
 O3                   1    R2       2    A1
 H4                   3    R3       1    A2       2    D1       0
 C5                   1    Dist     2    A3       3    D2       0
 O6                   5    R4       1    A4       2    D3       0
 O7                   5    R4       1    A4       3    D3       0
 H8                   5    R5       6    A5       7    D4       0
       Variables:
  R1                    1.5884                   
  R2                    1.813                    
  R3                    0.9583                   
  R4                    1.2633                   
  R5                    1.0941                   
  A1                  115.3549                   
  A2                  134.8775                   
  A3                  118.9749                   
  A4                   60.0497                   
  A5                  119.9596                   
  D1                   -0.0008                   
  D2                  180.8933                   
  D3                   90.1932                   
  D4                  179.7084                   
  Dist                  2.38                     
 

 GradGradGradGradGradGradGradGradGradGradGradGradGradGradGradGradGradGrad
 Berny optimization.
 Initialization pass.
                       ----------------------------
                       !    Initial Parameters    !
                       ! (Angstroms and Degrees)  !
 ----------------------                            ----------------------
 !      Name          Value   Derivative information (Atomic Units)     !
 ------------------------------------------------------------------------
 !       R1          1.5884   calculate D2E/DX2 analytically            !
 !       R2          1.813    calculate D2E/DX2 analytically            !
 !       R3          0.9583   calculate D2E/DX2 analytically            !
 !       R4          1.2633   calculate D2E/DX2 analytically            !
 !       R5          1.0941   calculate D2E/DX2 analytically            !
 !       A1        115.3549   calculate D2E/DX2 analytically            !
 !       A2        134.8775   calculate D2E/DX2 analytically            !
 !       A3        118.9749   calculate D2E/DX2 analytically            !
 !       A4         60.0497   calculate D2E/DX2 analytically            !
 !       A5        119.9596   calculate D2E/DX2 analytically            !
 !       D1         -0.0008   calculate D2E/DX2 analytically            !
 !       D2        180.8933   calculate D2E/DX2 analytically            !
 !       D3         90.1932   calculate D2E/DX2 analytically            !
 !       D4        179.7084   calculate D2E/DX2 analytically            !
 !      Dist         2.38     calculate D2E/DX2 analytically            !
 ------------------------------------------------------------------------
 Trust Radius=3.00D-01 FncErr=1.00D-07 GrdErr=1.00D-07 EigMax=2.50D+02 EigMin=1.00D-04
 Number of steps in this run=     25 maximum allowed number of steps=    100.
 GradGradGradGradGradGradGradGradGradGradGradGradGradGradGradGradGradGrad

 ---------------------------------------------------------------------------------------------------
                            Z-MATRIX (ANGSTROMS AND DEGREES)
   CD    Cent   Atom    N1       Length/X        N2       Alpha/Y        N3        Beta/Z          J
 ---------------------------------------------------------------------------------------------------
      1      1  Ti
      2      2  O        1   1.588400(     1)
      3      3  O        1   1.813000(     2)      2  115.355(     8)
      4      4  H        3   0.958300(     3)      1  134.878(     9)      2   -0.001(    14)      0
      5      5  C        1   2.380000(     4)      2  118.975(    10)      3  180.893(    15)      0
      6      6  O        5   1.263300(     5)      1   60.050(    11)      2   90.193(    16)      0
      7      7  O        5   1.263300(     6)      1   60.050(    12)      3   90.193(    17)      0
      8      8  H        5   1.094100(     7)      6  119.960(    13)      7  179.708(    18)      0
 ---------------------------------------------------------------------------------------------------
                         Z-Matrix orientation:                         
 ---------------------------------------------------------------------
 Center     Atomic      Atomic             Coordinates (Angstroms)
 Number     Number       Type             X           Y           Z
 ---------------------------------------------------------------------
      1         22           0        0.000000    0.000000    0.000000
      2          8           0        0.000000    0.000000    1.588400
      3          8           0        1.638359    0.000000   -0.776370
      4          1           0        2.540188    0.000009   -0.452267
      5          6           0       -2.081847    0.032461   -1.152935
      6          8           0       -1.511304    1.118289   -0.850636
      7          8           0       -1.539814   -1.070614   -0.860784
      8          1           0       -3.049017    0.047316   -1.664225
 ---------------------------------------------------------------------
                    Distance matrix (angstroms):
                    1          2          3          4          5
     1  Ti   0.000000
     2  O    1.588400   0.000000
     3  O    1.813000   2.876866   0.000000
     4  H    2.580136   3.258355   0.958300   0.000000
     5  C    2.380000   3.442391   3.739356   4.674954   0.000000
     6  O    2.063539   3.079530   3.343121   4.221828   1.263300
     7  O    2.063539   3.084760   3.354716   4.237870   1.263300
     8  H    3.473958   4.458510   4.770955   5.719291   1.094100
                    6          7          8
     6  O    0.000000
     7  O    2.189112   0.000000
     8  H    2.042907   2.042787   0.000000
 Stoichiometry    CH2O4Ti
 Framework group  C1[X(CH2O4Ti)]
 Deg. of freedom    18
 Full point group                 C1      NOp   1
 Largest Abelian subgroup         C1      NOp   1
 Largest concise Abelian subgroup C1      NOp   1
                         Standard orientation:                         
 ---------------------------------------------------------------------
 Center     Atomic      Atomic             Coordinates (Angstroms)
 Number     Number       Type             X           Y           Z
 ---------------------------------------------------------------------
      1         22           0       -0.461276    0.097246   -0.005152
      2          8           0       -1.052005    1.571622    0.011221
      3          8           0       -1.693312   -1.232812   -0.003939
      4          1           0       -2.650950   -1.267428    0.004484
      5          6           0        1.900225   -0.198784    0.003711
      6          8           0        1.268039   -0.138528    1.095790
      7          8           0        1.278455   -0.120978   -1.093228
      8          1           0        2.988263   -0.313724    0.007854
 ---------------------------------------------------------------------
 Rotational constants (GHZ):           4.8019547           2.2623760           2.0056587
 Standard basis: def2TZVP (5D, 7F)
 There are   244 symmetry adapted cartesian basis functions of A   symmetry.
 There are   212 symmetry adapted basis functions of A   symmetry.
   212 basis functions,   373 primitive gaussians,   244 cartesian basis functions
    31 alpha electrons       31 beta electrons
       nuclear repulsion energy       378.6891123825 Hartrees.
 NAtoms=    8 NActive=    8 NUniq=    8 SFac= 1.00D+00 NAtFMM=   60 NAOKFM=F Big=F
 Integral buffers will be    131072 words long.
 Raffenetti 1 integral format.
 Two-electron integral symmetry is turned on.
 One-electron integrals computed using PRISM.
   1 Symmetry operations used in ECPInt.
 ECPInt:  NShTT=    3081 NPrTT=   11201 LenC2=    3005 LenP2D=    8528.
 LDataN:  DoStor=T MaxTD1= 6 Len=  172
 NBasis=   212 RedAO= T EigKep=  1.04D-03  NBF=   212
 NBsUse=   212 1.00D-06 EigRej= -1.00D+00 NBFU=   212
 ExpMin= 3.27D-02 ExpMax= 2.12D+05 ExpMxC= 2.04D+03 IAcc=3 IRadAn=         5 AccDes= 0.00D+00
 Harris functional with IExCor=  205 and IRadAn=       5 diagonalized for initial guess.
 HarFok:  IExCor=  205 AccDes= 0.00D+00 IRadAn=         5 IDoV= 1 UseB2=F ITyADJ=14
 ICtDFT=  3500011 ScaDFX=  1.000000  1.000000  1.000000  1.000000
 FoFCou: FMM=F IPFlag=           0 FMFlag=      100000 FMFlg1=           0
         NFxFlg=           0 DoJE=T BraDBF=F KetDBF=T FulRan=T
         wScrn=  0.000000 ICntrl=       500 IOpCl=  0 I1Cent=   200000004 NGrid=           0
         NMat0=    1 NMatS0=      1 NMatT0=    0 NMatD0=    1 NMtDS0=    0 NMtDT0=    0
 Petite list used in FoFCou.
 Keep R1 ints in memory in canonical form, NReq=262248396.
 Requested convergence on RMS density matrix=1.00D-08 within 128 cycles.
 Requested convergence on MAX density matrix=1.00D-06.
 Requested convergence on             energy=1.00D-06.
 No special actions if energy rises.
 SCF Done:  E(RHF) =  -1187.19917038     A.U. after   17 cycles
            NFock= 17  Conv=0.41D-08     -V/T= 2.0003
 ExpMin= 3.27D-02 ExpMax= 2.12D+05 ExpMxC= 2.04D+03 IAcc=3 IRadAn=         5 AccDes= 0.00D+00
 HarFok:  IExCor=  205 AccDes= 0.00D+00 IRadAn=         5 IDoV=-2 UseB2=F ITyADJ=14
 ICtDFT= 12500011 ScaDFX=  1.000000  1.000000  1.000000  1.000000
 Range of M.O.s used for correlation:    15   212
 NBasis=   212 NAE=    31 NBE=    31 NFC=    14 NFV=     0
 NROrb=    198 NOA=    17 NOB=    17 NVA=   181 NVB=   181

 **** Warning!!: The largest alpha MO coefficient is  0.11471483D+02

 Disk-based method using ON**2 memory for 17 occupieds at a time.
 Permanent disk used for amplitudes=    39058171 words.
 Estimated scratch disk usage=   447141924 words.
 Actual    scratch disk usage=   432311844 words.
 JobTyp=1 Pass  1:  I=  15 to  31 NPSUse=  2 ParTrn=T ParDer=T DoDerP=T.
 (rs|ai) integrals will be sorted in core.
