 Entering Link 1 = C:\G16W\l1.exe PID=      4092.
  
 Copyright (c) 1988-2017, Gaussian, Inc.  All Rights Reserved.
  
 This is part of the Gaussian(R) 16 program.  It is based on
 the Gaussian(R) 09 system (copyright 2009, Gaussian, Inc.),
 the Gaussian(R) 03 system (copyright 2003, Gaussian, Inc.),
 the Gaussian(R) 98 system (copyright 1998, Gaussian, Inc.),
 the Gaussian(R) 94 system (copyright 1995, Gaussian, Inc.),
 the Gaussian 92(TM) system (copyright 1992, Gaussian, Inc.),
 the Gaussian 90(TM) system (copyright 1990, Gaussian, Inc.),
 the Gaussian 88(TM) system (copyright 1988, Gaussian, Inc.),
 the Gaussian 86(TM) system (copyright 1986, Carnegie Mellon
 University), and the Gaussian 82(TM) system (copyright 1983,
 Carnegie Mellon University). Gaussian is a federally registered
 trademark of Gaussian, Inc.
  
 This software contains proprietary and confidential information,
 including trade secrets, belonging to Gaussian, Inc.
  
 This software is provided under written license and may be
 used, copied, transmitted, or stored only in accord with that
 written license.
  
 The following legend is applicable only to US Government
 contracts under FAR:
  
                    RESTRICTED RIGHTS LEGEND
  
 Use, reproduction and disclosure by the US Government is
 subject to restrictions as set forth in subparagraphs (a)
 and (c) of the Commercial Computer Software - Restricted
 Rights clause in FAR 52.227-19.
  
 Gaussian, Inc.
 340 Quinnipiac St., Bldg. 40, Wallingford CT 06492
  
  
 ---------------------------------------------------------------
 Warning -- This program may not be used in any manner that
 competes with the business of Gaussian, Inc. or will provide
 assistance to any competitor of Gaussian, Inc.  The licensee
 of this program is prohibited from giving any competitor of
 Gaussian, Inc. access to this program.  By using this program,
 the user acknowledges that Gaussian, Inc. is engaged in the
 business of creating and licensing software in the field of
 computational chemistry and represents and warrants to the
 licensee that it is not a competitor of Gaussian, Inc. and that
 it will not use this program in any manner prohibited above.
 ---------------------------------------------------------------
  

 Cite this work as:
 Gaussian 16, Revision B.01,
 M. J. Frisch, G. W. Trucks, H. B. Schlegel, G. E. Scuseria, 
 M. A. Robb, J. R. Cheeseman, G. Scalmani, V. Barone, 
 G. A. Petersson, H. Nakatsuji, X. Li, M. Caricato, A. V. Marenich, 
 J. Bloino, B. G. Janesko, R. Gomperts, B. Mennucci, H. P. Hratchian, 
 J. V. Ortiz, A. F. Izmaylov, J. L. Sonnenberg, D. Williams-Young, 
 F. Ding, F. Lipparini, F. Egidi, J. Goings, B. Peng, A. Petrone, 
 T. Henderson, D. Ranasinghe, V. G. Zakrzewski, J. Gao, N. Rega, 
 G. Zheng, W. Liang, M. Hada, M. Ehara, K. Toyota, R. Fukuda, 
 J. Hasegawa, M. Ishida, T. Nakajima, Y. Honda, O. Kitao, H. Nakai, 
 T. Vreven, K. Throssell, J. A. Montgomery, Jr., J. E. Peralta, 
 F. Ogliaro, M. J. Bearpark, J. J. Heyd, E. N. Brothers, K. N. Kudin, 
 V. N. Staroverov, T. A. Keith, R. Kobayashi, J. Normand, 
 K. Raghavachari, A. P. Rendell, J. C. Burant, S. S. Iyengar, 
 J. Tomasi, M. Cossi, J. M. Millam, M. Klene, C. Adamo, R. Cammi, 
 J. W. Ochterski, R. L. Martin, K. Morokuma, O. Farkas, 
 J. B. Foresman, and D. J. Fox, Gaussian, Inc., Wallingford CT, 2016.
 
 ******************************************
 Gaussian 16:  EM64W-G16RevB.01 16-Dec-2017
                23-Jul-2018 
 ******************************************
 %nproc=2
 Will use up to    2 processors via shared memory.
 %mem=4gb
 -----------------------------------------------
 # MP2 Aug-cc-pvTZ opt=(noeigen,calcfc,z-matrix)
 -----------------------------------------------
 1/10=4,11=1,18=40,38=1/1,3;
 2/12=2,17=6,18=5,29=3,40=1/2;
 3/5=16,6=1,7=10,11=9,25=1,30=1,71=2,140=1/1,2,3;
 4//1;
 5/5=2,38=5/2;
 8/6=3,8=1,10=1,19=11,30=-1/1;
 9/15=3,16=-3/6;
 11/6=1,8=1,15=11,17=12,24=-1,27=1,28=-2,29=300,32=6,42=3/1,2,10;
 10/6=2,21=1/2;
 8/6=4,8=1,10=1,19=11,30=-1/11,4;
 10/5=1,20=4/2;
 11/12=2,14=11,16=1,17=2,28=-2,42=3,76=2/2,10,12;
 6/7=2,8=2,9=2,10=2/1;
 7/10=1,12=2,25=1,44=2/1,2,3,16;
 1/10=4,11=1,18=40/3(2);
 2/29=3/2;
 99//99;
 2/29=3/2;
 3/5=16,6=1,7=10,11=9,25=1,30=1,71=1/1,2,3;
 4/5=5,16=3,69=1/1;
 5/5=2,38=5/2;
 8/6=4,10=1/1;
 9/15=2,16=-3/6;
 10/5=1/2;
 7/12=2/1,2,3,16;
 1/11=1,18=40/3(-8);
 2/29=3/2;
 6/7=2,8=2,9=2,10=2/1;
 99/9=10/99;
 -------
 Formate
 -------
 Symbolic Z-matrix:
 Charge = -1 Multiplicity = 1
 C
 O                    1    R1
 O                    1    R1       2    A1
 H                    1    R2       2    A2       3     180.     0
       Variables:
  R1                    1.25827                  
  R2                    1.12525                  
  A1                  130.18115                  
       Constants:
  A2                  130.                       
 

 GradGradGradGradGradGradGradGradGradGradGradGradGradGradGradGradGradGrad
 Berny optimization.
 Initialization pass.
                       ----------------------------
                       !    Initial Parameters    !
                       ! (Angstroms and Degrees)  !
 ----------------------                            ----------------------
 !      Name          Value   Derivative information (Atomic Units)     !
 ------------------------------------------------------------------------
 !       R1          1.2583   calculate D2E/DX2 analytically            !
 !       R2          1.1253   calculate D2E/DX2 analytically            !
 !       A1        130.1811   calculate D2E/DX2 analytically            !
 !       A2        130.0      frozen, calculate D2E/DX2 analytically    !
 ------------------------------------------------------------------------
 Trust Radius=3.00D-01 FncErr=1.00D-07 GrdErr=1.00D-07 EigMax=2.50D+02 EigMin=1.00D-04
 Number of steps in this run=     20 maximum allowed number of steps=    100.
 GradGradGradGradGradGradGradGradGradGradGradGradGradGradGradGradGradGrad

 ---------------------------------------------------------------------------------------------------
                            Z-MATRIX (ANGSTROMS AND DEGREES)
   CD    Cent   Atom    N1       Length/X        N2       Alpha/Y        N3        Beta/Z          J
 ---------------------------------------------------------------------------------------------------
      1      1  C 
      2      2  O        1   1.258269(     1)
      3      3  O        1   1.258269(     2)      2  130.181(     4)
      4      4  H        1   1.125251(     3)      2  130.000(     5)      3  180.000(     6)      0
 ---------------------------------------------------------------------------------------------------
                         Z-Matrix orientation:                         
 ---------------------------------------------------------------------
 Center     Atomic      Atomic             Coordinates (Angstroms)
 Number     Number       Type             X           Y           Z
 ---------------------------------------------------------------------
      1          6           0        0.000000    0.000000    0.000000
      2          8           0        0.000000    0.000000    1.258269
      3          8           0        0.961328    0.000000   -0.811843
      4          1           0       -0.861992    0.000000   -0.723298
 ---------------------------------------------------------------------
                    Distance matrix (angstroms):
                    1          2          3          4
     1  C    0.000000
     2  O    1.258269   0.000000
     3  O    1.258269   2.282437   0.000000
     4  H    1.125251   2.160935   1.825470   0.000000
 Stoichiometry    CHO2(1-)
 Framework group  CS[SG(CHO2)]
 Deg. of freedom     5
 Full point group                 CS      NOp   2
 Largest Abelian subgroup         CS      NOp   2
 Largest concise Abelian subgroup C1      NOp   1
                         Standard orientation:                         
 ---------------------------------------------------------------------
 Center     Atomic      Atomic             Coordinates (Angstroms)
 Number     Number       Type             X           Y           Z
 ---------------------------------------------------------------------
      1          6           0        0.000000    0.321686    0.000000
      2          8           0        1.161308   -0.162676    0.000000
      3          8           0       -1.119340   -0.253049    0.000000
      4          1           0       -0.335742    1.395682    0.000000
 ---------------------------------------------------------------------
 Rotational constants (GHZ):         110.3335630          12.1042123          10.9075885
 Standard basis: Aug-CC-pVTZ (5D, 7F)
 There are   129 symmetry adapted cartesian basis functions of A'  symmetry.
 There are    61 symmetry adapted cartesian basis functions of A"  symmetry.
 There are   106 symmetry adapted basis functions of A'  symmetry.
 There are    55 symmetry adapted basis functions of A"  symmetry.
   161 basis functions,   243 primitive gaussians,   190 cartesian basis functions
    12 alpha electrons       12 beta electrons
       nuclear repulsion energy        62.3117497367 Hartrees.
 NAtoms=    4 NActive=    4 NUniq=    4 SFac= 1.00D+00 NAtFMM=   60 NAOKFM=F Big=F
 Integral buffers will be    131072 words long.
 Raffenetti 1 integral format.
 Two-electron integral symmetry is turned on.
 One-electron integrals computed using PRISM.
 NBasis=   161 RedAO= T EigKep=  9.43D-05  NBF=   106    55
 NBsUse=   161 1.00D-06 EigRej= -1.00D+00 NBFU=   106    55
 ExpMin= 2.53D-02 ExpMax= 1.53D+04 ExpMxC= 5.22D+02 IAcc=3 IRadAn=         5 AccDes= 0.00D+00
 Harris functional with IExCor=  205 and IRadAn=       5 diagonalized for initial guess.
 HarFok:  IExCor=  205 AccDes= 0.00D+00 IRadAn=         5 IDoV= 1 UseB2=F ITyADJ=14
 ICtDFT=  3500011 ScaDFX=  1.000000  1.000000  1.000000  1.000000
 FoFCou: FMM=F IPFlag=           0 FMFlag=      100000 FMFlg1=           0
         NFxFlg=           0 DoJE=T BraDBF=F KetDBF=T FulRan=T
         wScrn=  0.000000 ICntrl=       500 IOpCl=  0 I1Cent=   200000004 NGrid=           0
         NMat0=    1 NMatS0=      1 NMatT0=    0 NMatD0=    1 NMtDS0=    0 NMtDT0=    0
 Petite list used in FoFCou.
 Initial guess orbital symmetries:
       Occupied  (A') (A') (A') (A') (A') (A') (A') (A') (A") (A")
                 (A') (A')
       Virtual   (A") (A') (A') (A') (A") (A') (A') (A') (A') (A")
                 (A") (A') (A') (A') (A") (A') (A') (A') (A") (A')
                 (A') (A") (A') (A') (A") (A') (A') (A') (A') (A")
                 (A') (A') (A") (A") (A') (A") (A") (A') (A') (A')
                 (A') (A") (A') (A") (A') (A') (A") (A') (A') (A")
                 (A') (A') (A") (A') (A') (A") (A') (A") (A') (A")
                 (A') (A') (A') (A") (A') (A') (A') (A") (A') (A")
                 (A") (A') (A') (A") (A") (A') (A') (A') (A') (A")
                 (A') (A") (A") (A') (A') (A') (A') (A") (A") (A')
                 (A') (A") (A') (A") (A') (A') (A') (A") (A') (A")
                 (A") (A') (A') (A") (A') (A') (A") (A') (A') (A')
                 (A') (A") (A") (A") (A') (A') (A") (A') (A') (A')
                 (A') (A') (A") (A') (A") (A') (A') (A") (A") (A')
                 (A") (A") (A') (A') (A') (A") (A") (A') (A") (A')
                 (A') (A") (A') (A') (A') (A') (A') (A') (A')
 The electronic state of the initial guess is 1-A'.
 Keep R1 ints in memory in symmetry-blocked form, NReq=128070129.
 Requested convergence on RMS density matrix=1.00D-08 within 128 cycles.
 Requested convergence on MAX density matrix=1.00D-06.
 Requested convergence on             energy=1.00D-06.
 No special actions if energy rises.
 SCF Done:  E(RHF) =  -188.261250546     A.U. after   12 cycles
            NFock= 12  Conv=0.96D-08     -V/T= 2.0016
 ExpMin= 2.53D-02 ExpMax= 1.53D+04 ExpMxC= 5.22D+02 IAcc=3 IRadAn=         5 AccDes= 0.00D+00
 HarFok:  IExCor=  205 AccDes= 0.00D+00 IRadAn=         5 IDoV=-2 UseB2=F ITyADJ=14
 ICtDFT= 12500011 ScaDFX=  1.000000  1.000000  1.000000  1.000000
 Range of M.O.s used for correlation:     4   161
 NBasis=   161 NAE=    12 NBE=    12 NFC=     3 NFV=     0
 NROrb=    158 NOA=     9 NOB=     9 NVA=   149 NVB=   149

 **** Warning!!: The largest alpha MO coefficient is  0.30735712D+02

 Disk-based method using ON**2 memory for  9 occupieds at a time.
 Permanent disk used for amplitudes=     3924660 words.
 Estimated scratch disk usage=   113146432 words.
 Actual    scratch disk usage=   109232192 words.
 JobTyp=1 Pass  1:  I=   4 to  12 NPSUse=  2 ParTrn=T ParDer=T DoDerP=T.
 (rs|ai) integrals will be sorted in core.
 Spin components of T(2) and E(2):
     alpha-alpha T2 =       0.2488366333D-01 E2=     -0.8647718799D-01
     alpha-beta  T2 =       0.1302418239D+00 E2=     -0.4864296694D+00
     beta-beta   T2 =       0.2488366333D-01 E2=     -0.8647718799D-01
 ANorm=    0.1086282261D+01
 E2 =    -0.6593840454D+00 EUMP2 =    -0.18892063459134D+03
 G2DrvN: will do     5 centers at a time, making    1 passes.
 Calling FoFCou, ICntrl=  3107 FMM=F I1Cent=   0 AccDes= 0.00D+00.
 End of G2Drv F.D. properties file   721 does not exist.
 End of G2Drv F.D. properties file   722 does not exist.
 End of G2Drv F.D. properties file   788 does not exist.
          IDoAtm=1111
          Differentiating once with respect to electric field.
                with respect to dipole field.
          Differentiating once with respect to nuclear coordinates.
 Keep R1 ints in memory in symmetry-blocked form, NReq=128071153.
          There are    15 degrees of freedom in the 1st order CPHF.  IDoFFX=6 NUNeed=    15.
     12 vectors produced by pass  0 Test12= 1.19D-14 6.67D-09 XBig12= 9.12D+00 1.32D+00.
 AX will form    12 AO Fock derivatives at one time.
     12 vectors produced by pass  1 Test12= 1.19D-14 6.67D-09 XBig12= 1.15D+00 2.68D-01.
     12 vectors produced by pass  2 Test12= 1.19D-14 6.67D-09 XBig12= 3.15D-02 4.28D-02.
     12 vectors produced by pass  3 Test12= 1.19D-14 6.67D-09 XBig12= 8.63D-04 6.53D-03.
     12 vectors produced by pass  4 Test12= 1.19D-14 6.67D-09 XBig12= 1.47D-05 7.95D-04.
     12 vectors produced by pass  5 Test12= 1.19D-14 6.67D-09 XBig12= 2.21D-07 1.18D-04.
     12 vectors produced by pass  6 Test12= 1.19D-14 6.67D-09 XBig12= 2.04D-09 1.25D-05.
      9 vectors produced by pass  7 Test12= 1.19D-14 6.67D-09 XBig12= 2.18D-11 9.00D-07.
      3 vectors produced by pass  8 Test12= 1.19D-14 6.67D-09 XBig12= 2.02D-13 8.76D-08.
      1 vectors produced by pass  9 Test12= 1.19D-14 6.67D-09 XBig12= 1.58D-15 9.32D-09.
 InvSVY:  IOpt=1 It=  1 EMax= 1.11D-15
 Solved reduced A of dimension    97 with    12 vectors.
 End of Minotr F.D. properties file   721 does not exist.
 End of Minotr F.D. properties file   722 does not exist.
 End of Minotr F.D. properties file   788 does not exist.
 MDV=   536870912.
 Form MO integral derivatives with frozen-active canonical formalism.
 Discarding MO integrals.
 Reordered first order wavefunction length =      6393888
 In DefCFB: NBatch=  1 ICI= 12 ICA=149 LFMax= 50
            Large arrays: LIAPS=   218779680 LIARS=   130792200 words.
 Semi-Direct transformation.
 ModeAB=           2 MOrb=            12 LenV=     536063119
 LASXX=     23759367 LTotXX=    23759367 LenRXX=    23759367
 LTotAB=    24195042 MaxLAS=    35056140 LenRXY=    35056140
 NonZer=    47518734 LenScr=    72043008 LnRSAI=           0
 LnScr1=           0 LExtra=           0 Total=    130858515
 MaxDsk=          -1 SrtSym=           F ITran=            4
 JobTyp=0 Pass  1:  I=   1 to  12.
 (rs|ai) integrals will be sorted in core.
 Spin components of T(2) and E(2):
     alpha-alpha T2 =       0.2488366333D-01 E2=     -0.8647718799D-01
     alpha-beta  T2 =       0.1302418239D+00 E2=     -0.4864296694D+00
     beta-beta   T2 =       0.2488366333D-01 E2=     -0.8647718799D-01
 ANorm=    0.1536235106D+01
 E2 =    -0.6593840454D+00 EUMP2 =    -0.18892063459134D+03
          IDoAtm=1111
          Differentiating once with respect to electric field.
                with respect to dipole field.
          Differentiating once with respect to nuclear coordinates.
          There are     1 degrees of freedom in the 1st order CPHF.  IDoFFX=0 NUNeed=     1.
 LinEq1:  Iter=  0 NonCon=     1 RMS=6.55D-03 Max=1.03D-01 NDo=     1
 LinEq1:  Iter=  1 NonCon=     1 RMS=1.60D-03 Max=1.50D-02 NDo=     1
 LinEq1:  Iter=  2 NonCon=     1 RMS=5.69D-04 Max=6.57D-03 NDo=     1
 LinEq1:  Iter=  3 NonCon=     1 RMS=2.03D-04 Max=2.06D-03 NDo=     1
 LinEq1:  Iter=  4 NonCon=     1 RMS=6.04D-05 Max=7.12D-04 NDo=     1
 LinEq1:  Iter=  5 NonCon=     1 RMS=1.21D-05 Max=1.14D-04 NDo=     1
 LinEq1:  Iter=  6 NonCon=     1 RMS=3.27D-06 Max=3.18D-05 NDo=     1
 LinEq1:  Iter=  7 NonCon=     1 RMS=1.76D-06 Max=3.14D-05 NDo=     1
 LinEq1:  Iter=  8 NonCon=     1 RMS=5.41D-07 Max=5.20D-06 NDo=     1
 LinEq1:  Iter=  9 NonCon=     1 RMS=1.27D-07 Max=1.47D-06 NDo=     1
 LinEq1:  Iter= 10 NonCon=     1 RMS=2.68D-08 Max=2.07D-07 NDo=     1
 LinEq1:  Iter= 11 NonCon=     1 RMS=4.55D-09 Max=5.30D-08 NDo=     1
 LinEq1:  Iter= 12 NonCon=     1 RMS=7.27D-10 Max=1.00D-08 NDo=     1
 LinEq1:  Iter= 13 NonCon=     1 RMS=9.81D-11 Max=1.41D-09 NDo=     1
 LinEq1:  Iter= 14 NonCon=     0 RMS=1.59D-11 Max=1.08D-10 NDo=     1
 Linear equations converged to 1.000D-10 1.000D-09 after    14 iterations.
 End of Minotr F.D. properties file   721 does not exist.
 End of Minotr F.D. properties file   722 does not exist.
 End of Minotr F.D. properties file   788 does not exist.
 Symmetrizing basis deriv contribution to polar:
 IMax=3 JMax=2 DiffMx= 0.00D+00
 G2DrvN: will do     5 centers at a time, making    1 passes.
 Calling FoFCou, ICntrl=  3107 FMM=F I1Cent=   0 AccDes= 0.00D+00.
 End of G2Drv F.D. properties file   721 does not exist.
 End of G2Drv F.D. properties file   722 does not exist.
 End of G2Drv F.D. properties file   788 does not exist.
 R2 and R3 integrals will be kept in memory, NReq=   332743010.
 DD1Dir will call FoFMem   1 times, MxPair=       156
 NAB=    78 NAA=     0 NBB=     0.
 Discarding MO integrals.

 **********************************************************************

            Population analysis using the SCF Density.

 **********************************************************************

 Orbital symmetries:
       Occupied  (A') (A') (A') (A') (A') (A') (A') (A') (A") (A')
                 (A") (A')
       Virtual   (A') (A') (A") (A') (A') (A') (A') (A") (A") (A')
                 (A') (A') (A") (A') (A') (A") (A') (A') (A') (A")
                 (A") (A') (A') (A") (A') (A') (A') (A') (A') (A")
                 (A') (A") (A') (A") (A') (A") (A') (A") (A') (A')
                 (A") (A') (A') (A') (A') (A") (A") (A') (A') (A")
                 (A') (A") (A') (A') (A') (A") (A') (A") (A') (A")
                 (A') (A') (A") (A') (A') (A') (A") (A') (A') (A")
                 (A") (A") (A') (A') (A") (A') (A') (A') (A') (A")
                 (A') (A") (A') (A") (A') (A') (A') (A") (A") (A')
                 (A') (A") (A') (A") (A') (A') (A") (A') (A') (A")
                 (A') (A") (A') (A") (A') (A') (A") (A') (A') (A')
                 (A") (A') (A") (A') (A") (A") (A') (A') (A') (A')
                 (A') (A') (A") (A') (A") (A') (A") (A') (A") (A')
                 (A") (A') (A") (A") (A') (A') (A') (A") (A') (A")
                 (A') (A") (A') (A') (A') (A') (A') (A') (A')
 The electronic state is 1-A'.
 Alpha  occ. eigenvalues --  -20.29571 -20.28340 -11.12525  -1.15527  -1.06085
 Alpha  occ. eigenvalues --   -0.55538  -0.43071  -0.38520  -0.34047  -0.21160
 Alpha  occ. eigenvalues --   -0.18752  -0.18130
 Alpha virt. eigenvalues --    0.14434   0.21270   0.21415   0.21677   0.28101
 Alpha virt. eigenvalues --    0.31874   0.32687   0.33741   0.36504   0.36630
 Alpha virt. eigenvalues --    0.39427   0.41789   0.42215   0.45606   0.48631
 Alpha virt. eigenvalues --    0.49081   0.52669   0.54966   0.57947   0.58698
 Alpha virt. eigenvalues --    0.62811   0.67322   0.70947   0.72255   0.78776
 Alpha virt. eigenvalues --    0.81389   0.87901   0.89857   0.95450   0.96368
 Alpha virt. eigenvalues --    0.99479   1.03779   1.04457   1.06005   1.06263
 Alpha virt. eigenvalues --    1.09468   1.10253   1.12302   1.12340   1.16993
 Alpha virt. eigenvalues --    1.20822   1.20921   1.23672   1.26405   1.28115
 Alpha virt. eigenvalues --    1.31046   1.33686   1.36586   1.41310   1.44042
 Alpha virt. eigenvalues --    1.48995   1.54934   1.56523   1.63356   1.67205
 Alpha virt. eigenvalues --    1.68210   1.74449   1.78456   1.80234   1.87255
 Alpha virt. eigenvalues --    1.90919   1.97557   2.12315   2.12553   2.22947
 Alpha virt. eigenvalues --    2.29642   2.42141   2.42333   2.46864   2.49169
 Alpha virt. eigenvalues --    2.57369   2.63143   2.63424   2.64378   2.64723
 Alpha virt. eigenvalues --    2.65917   2.71775   2.72557   2.77607   2.81427
 Alpha virt. eigenvalues --    2.84007   2.84561   2.92604   2.93778   2.99019
 Alpha virt. eigenvalues --    3.06579   3.13684   3.14231   3.15977   3.20742
 Alpha virt. eigenvalues --    3.34444   3.43750   3.47601   3.55980   3.65131
 Alpha virt. eigenvalues --    3.78288   3.80664   3.84330   4.03571   4.03735
 Alpha virt. eigenvalues --    4.21400   4.26641   4.26911   4.28670   4.41637
 Alpha virt. eigenvalues --    4.44255   4.50491   4.55304   4.70128   4.80870
 Alpha virt. eigenvalues --    4.87802   5.01874   5.20204   5.28252   5.38683
 Alpha virt. eigenvalues --    5.43830   5.44153   5.55235   5.86514   6.15005
 Alpha virt. eigenvalues --    6.50878   6.60622   6.84587   6.85579   6.87693
 Alpha virt. eigenvalues --    6.88256   7.07480   7.07491   7.10605   7.21709
 Alpha virt. eigenvalues --    7.31142   7.37242   7.37996   7.45145   7.45983
 Alpha virt. eigenvalues --    7.47858   7.53153   7.55574   7.78788   7.80570
 Alpha virt. eigenvalues --    7.84699   7.85728   7.93290   8.03469   8.13311
 Alpha virt. eigenvalues --    8.24810  13.59209  15.48783  16.67697
          Condensed to atoms (all electrons):
               1          2          3          4
     1  C    4.923946   0.434493   0.403037   0.287625
     2  O    0.434493   8.404265  -0.114129  -0.045206
     3  O    0.403037  -0.114129   8.471442  -0.072505
     4  H    0.287625  -0.045206  -0.072505   0.413717
 Mulliken charges:
               1
     1  C   -0.049101
     2  O   -0.679423
     3  O   -0.687845
     4  H    0.416368
 Sum of Mulliken charges =  -1.00000
 Mulliken charges with hydrogens summed into heavy atoms:
               1
     1  C    0.367267
     2  O   -0.679423
     3  O   -0.687845
 APT charges:
               1
     1  C    1.221587
     2  O   -1.008621
     3  O   -1.030158
     4  H   -0.182807
 Sum of APT charges =  -1.00000
 APT charges with hydrogens summed into heavy atoms:
               1
     1  C    1.038780
     2  O   -1.008621
     3  O   -1.030158
 Electronic spatial extent (au):  <R**2>=            137.7125
 Charge=             -1.0000 electrons
 Dipole moment (field-independent basis, Debye):
    X=             -0.1418    Y=              1.8282    Z=              0.0000  Tot=              1.8337
 Quadrupole moment (field-independent basis, Debye-Ang):
   XX=            -29.6026   YY=            -20.3529   ZZ=            -18.9486
   XY=             -0.7728   XZ=              0.0000   YZ=              0.0000
 Traceless Quadrupole moment (field-independent basis, Debye-Ang):
   XX=             -6.6346   YY=              2.6152   ZZ=              4.0194
   XY=             -0.7728   XZ=              0.0000   YZ=              0.0000
 Octapole moment (field-independent basis, Debye-Ang**2):
  XXX=             -0.2275  YYY=             -1.2993  ZZZ=              0.0000  XYY=             -0.1037
  XXY=              1.1318  XXZ=              0.0000  XZZ=              0.1044  YZZ=             -0.2618
  YYZ=              0.0000  XYZ=              0.0000
 Hexadecapole moment (field-independent basis, Debye-Ang**3):
 XXXX=           -138.9432 YYYY=            -43.5751 ZZZZ=            -19.9409 XXXY=             -1.7227
 XXXZ=              0.0000 YYYX=             -1.6703 YYYZ=              0.0000 ZZZX=              0.0000
 ZZZY=              0.0000 XXYY=            -28.1844 XXZZ=            -25.0666 YYZZ=            -10.3059
 XXYZ=              0.0000 YYXZ=              0.0000 ZZXY=             -0.3006
 N-N= 6.231174973670D+01 E-N=-5.766803133997D+02  KE= 1.879596238220D+02
 Symmetry A'   KE= 1.803402578847D+02
 Symmetry A"   KE= 7.619365937321D+00
  Exact polarizability:  41.717  -0.360  36.412   0.000   0.000  23.686
 Approx polarizability:  27.484  -0.503  23.154   0.000   0.000  18.619
 Calling FoFJK, ICntrl=  10100127 FMM=F ISym2X=1 I1Cent= 0 IOpClX= 0 NMat=1 NMatS=1 NMatT=0.
 ***** Axes restored to original set *****
 -------------------------------------------------------------------
 Center     Atomic                   Forces (Hartrees/Bohr)
 Number     Number              X              Y              Z
 -------------------------------------------------------------------
      1        6           0.008847660    0.000000000   -0.015168100
      2        8          -0.013137661    0.000000000   -0.013638577
      3        8           0.030253902    0.000000000    0.001381327
      4        1          -0.025963902    0.000000000    0.027425350
 -------------------------------------------------------------------
 Cartesian Forces:  Max     0.030253902 RMS     0.015838881
 -----------------------------------------------------------------------------------------------
                       Internal Coordinate Forces (Hartree/Bohr or radian)
  Cent   Atom   N1       Length/X         N2         Alpha/Y        N3         Beta/Z          J
 -----------------------------------------------------------------------------------------------
      1  C 
      2  O        1  -0.013639(     1)
      3  O        1   0.022223(     2)      2  -0.048924(     4)
      4  H        1   0.002261(     3)      2  -0.080162(     5)      3   0.000000(     6)     0
 -----------------------------------------------------------------------------------------------
 Internal  Forces:  Max     0.080162312 RMS     0.039800575

 GradGradGradGradGradGradGradGradGradGradGradGradGradGradGradGradGradGrad
 Berny optimization.
 Search for a local minimum.
 Step number   1 out of a maximum of   20
 All quantities printed in internal units (Hartrees-Bohrs-Radians)
 Second derivative matrix not updated -- analytic derivatives used.
 The second derivative matrix:
                          R1        R2        A1        A2
           R1           1.42260
           R2           0.07641   0.26374
           A1           0.02311  -0.05069   0.56576
           A2          -0.06550  -0.01416   0.21785   0.30055
 ITU=  0
     Eigenvalues ---    0.25012   0.57391   1.428061000.00000
 RFO step:  Lambda=-4.30455361D-03 EMin= 2.50120725D-01
 Linear search not attempted -- first point.
 Variable       Old X    -DE/DX   Delta X   Delta X   Delta X     New X
                                 (Linear)    (Quad)   (Total)
    R1        2.37778   0.00858   0.00000   0.00798   0.00798   2.38576
    R2        2.12642   0.00226   0.00000  -0.01030  -0.01030   2.11611
    A1        2.27209  -0.04892   0.00000  -0.08706  -0.08706   2.18503
    A2        2.26893  -0.08016   0.00000   0.00000   0.00000   2.26893
         Item               Value     Threshold  Converged?
 Maximum Force            0.048924     0.000450     NO 
 RMS     Force            0.028707     0.000300     NO 
 Maximum Displacement     0.087061     0.001800     NO 
 RMS     Displacement     0.044015     0.001200     NO 
 Predicted change in Energy=-2.168955D-03
 GradGradGradGradGradGradGradGradGradGradGradGradGradGradGradGradGradGrad

 ---------------------------------------------------------------------------------------------------
                            Z-MATRIX (ANGSTROMS AND DEGREES)
   CD    Cent   Atom    N1       Length/X        N2       Alpha/Y        N3        Beta/Z          J
 ---------------------------------------------------------------------------------------------------
      1      1  C 
      2      2  O        1   1.262491(     1)
      3      3  O        1   1.262491(     2)      2  125.193(     4)
      4      4  H        1   1.119799(     3)      2  130.000(     5)      3  180.000(     6)      0
 ---------------------------------------------------------------------------------------------------
                         Z-Matrix orientation:                         
 ---------------------------------------------------------------------
 Center     Atomic      Atomic             Coordinates (Angstroms)
 Number     Number       Type             X           Y           Z
 ---------------------------------------------------------------------
      1          6           0        0.000000    0.000000    0.000000
      2          8           0        0.000000    0.000000    1.262491
      3          8           0        1.031728    0.000000   -0.727613
      4          1           0       -0.857816    0.000000   -0.719793
 ---------------------------------------------------------------------
                    Distance matrix (angstroms):
                    1          2          3          4
     1  C    0.000000
     2  O    1.262491   0.000000
     3  O    1.262491   2.241647   0.000000
     4  H    1.119799   2.159930   1.889560   0.000000
 Stoichiometry    CHO2(1-)
 Framework group  CS[SG(CHO2)]
 Deg. of freedom     5
 Full point group                 CS      NOp   2
 Largest Abelian subgroup         CS      NOp   2
 Largest concise Abelian subgroup C1      NOp   1
                         Standard orientation:                         
 ---------------------------------------------------------------------
 Center     Atomic      Atomic             Coordinates (Angstroms)
 Number     Number       Type             X           Y           Z
 ---------------------------------------------------------------------
      1          6           0        0.000000    0.356864    0.000000
      2          8           0        1.137616   -0.190599    0.000000
      3          8           0       -1.103039   -0.257294    0.000000
      4          1           0       -0.276616    1.441960    0.000000
 ---------------------------------------------------------------------
 Rotational constants (GHZ):          97.0911078          12.5561217          11.1182724
 Standard basis: Aug-CC-pVTZ (5D, 7F)
 There are   129 symmetry adapted cartesian basis functions of A'  symmetry.
 There are    61 symmetry adapted cartesian basis functions of A"  symmetry.
 There are   106 symmetry adapted basis functions of A'  symmetry.
 There are    55 symmetry adapted basis functions of A"  symmetry.
   161 basis functions,   243 primitive gaussians,   190 cartesian basis functions
    12 alpha electrons       12 beta electrons
       nuclear repulsion energy        62.3827355196 Hartrees.
 NAtoms=    4 NActive=    4 NUniq=    4 SFac= 1.00D+00 NAtFMM=   60 NAOKFM=F Big=F
 Integral buffers will be    131072 words long.
 Raffenetti 1 integral format.
 Two-electron integral symmetry is turned on.
 One-electron integrals computed using PRISM.
 NBasis=   161 RedAO= T EigKep=  9.30D-05  NBF=   106    55
 NBsUse=   161 1.00D-06 EigRej= -1.00D+00 NBFU=   106    55
 Initial guess from the checkpoint file:  "C:\Users\Garrett\Downloads\NanoclusterOutput\Gau-4092.chk"
 B after Tr=     0.000000    0.000000    0.000000
         Rot=    0.999978    0.000000    0.000000    0.006607 Ang=   0.76 deg.
 Initial guess orbital symmetries:
       Occupied  (A') (A') (A') (A') (A') (A') (A') (A') (A") (A')
                 (A") (A')
       Virtual   (A') (A') (A") (A') (A') (A') (A') (A") (A") (A')
                 (A') (A') (A") (A') (A') (A") (A') (A') (A') (A")
                 (A") (A') (A') (A") (A') (A') (A') (A') (A') (A")
                 (A') (A") (A') (A") (A') (A") (A') (A") (A') (A')
                 (A") (A') (A') (A') (A') (A") (A") (A') (A') (A")
                 (A') (A") (A') (A') (A') (A") (A') (A") (A') (A")
                 (A') (A') (A") (A') (A') (A') (A") (A') (A') (A")
                 (A") (A") (A') (A') (A") (A') (A') (A') (A') (A")
                 (A') (A") (A') (A") (A') (A') (A') (A") (A") (A')
                 (A') (A") (A') (A") (A') (A') (A") (A') (A') (A")
                 (A') (A") (A') (A") (A') (A') (A") (A') (A') (A')
                 (A") (A') (A") (A') (A") (A") (A') (A') (A') (A')
                 (A') (A') (A") (A') (A") (A') (A") (A') (A") (A')
                 (A") (A') (A") (A") (A') (A') (A') (A") (A') (A")
                 (A') (A") (A') (A') (A') (A') (A') (A') (A')
 ExpMin= 2.53D-02 ExpMax= 1.53D+04 ExpMxC= 5.22D+02 IAcc=3 IRadAn=         5 AccDes= 0.00D+00
 Harris functional with IExCor=  205 and IRadAn=       5 diagonalized for initial guess.
 HarFok:  IExCor=  205 AccDes= 0.00D+00 IRadAn=         5 IDoV= 1 UseB2=F ITyADJ=14
 ICtDFT=  3500011 ScaDFX=  1.000000  1.000000  1.000000  1.000000
 FoFCou: FMM=F IPFlag=           0 FMFlag=      100000 FMFlg1=           0
         NFxFlg=           0 DoJE=T BraDBF=F KetDBF=T FulRan=T
         wScrn=  0.000000 ICntrl=       500 IOpCl=  0 I1Cent=   200000004 NGrid=           0
         NMat0=    1 NMatS0=      1 NMatT0=    0 NMatD0=    1 NMtDS0=    0 NMtDT0=    0
 Petite list used in FoFCou.
 Keep R1 ints in memory in symmetry-blocked form, NReq=128070129.
 Requested convergence on RMS density matrix=1.00D-08 within 128 cycles.
 Requested convergence on MAX density matrix=1.00D-06.
 Requested convergence on             energy=1.00D-06.
 No special actions if energy rises.
 SCF Done:  E(RHF) =  -188.263304407     A.U. after   11 cycles
            NFock= 11  Conv=0.66D-08     -V/T= 2.0017
 ExpMin= 2.53D-02 ExpMax= 1.53D+04 ExpMxC= 5.22D+02 IAcc=3 IRadAn=         5 AccDes= 0.00D+00
 HarFok:  IExCor=  205 AccDes= 0.00D+00 IRadAn=         5 IDoV=-2 UseB2=F ITyADJ=14
 ICtDFT= 12500011 ScaDFX=  1.000000  1.000000  1.000000  1.000000
 Range of M.O.s used for correlation:     4   161
 NBasis=   161 NAE=    12 NBE=    12 NFC=     3 NFV=     0
 NROrb=    158 NOA=     9 NOB=     9 NVA=   149 NVB=   149

 **** Warning!!: The largest alpha MO coefficient is  0.32162382D+02

 Fully direct method using O(ONN) memory.
 JobTyp=1 Pass  1:  I=   4 to  12 NPSUse=  2 ParTrn=T ParDer=T DoDerP=T.
 Spin components of T(2) and E(2):
     alpha-alpha T2 =       0.2491437001D-01 E2=     -0.8645678683D-01
     alpha-beta  T2 =       0.1304944335D+00 E2=     -0.4865942878D+00
     beta-beta   T2 =       0.2491437001D-01 E2=     -0.8645678683D-01
 ANorm=    0.1086426792D+01
 E2 =    -0.6595078614D+00 EUMP2 =    -0.18892281226816D+03
          IDoAtm=1111
          Differentiating once with respect to electric field.
                with respect to dipole field.
          Differentiating once with respect to nuclear coordinates.
 Keep R1 ints in memory in symmetry-blocked form, NReq=128071153.
          There are     1 degrees of freedom in the 1st order CPHF.  IDoFFX=0 NUNeed=     1.
 LinEq1:  Iter=  0 NonCon=     1 RMS=6.58D-03 Max=1.04D-01 NDo=     1
 AX will form     1 AO Fock derivatives at one time.
 LinEq1:  Iter=  1 NonCon=     1 RMS=1.61D-03 Max=1.70D-02 NDo=     1
 LinEq1:  Iter=  2 NonCon=     1 RMS=5.75D-04 Max=6.78D-03 NDo=     1
 LinEq1:  Iter=  3 NonCon=     1 RMS=2.10D-04 Max=2.23D-03 NDo=     1
 LinEq1:  Iter=  4 NonCon=     1 RMS=6.29D-05 Max=6.83D-04 NDo=     1
 LinEq1:  Iter=  5 NonCon=     1 RMS=1.31D-05 Max=1.25D-04 NDo=     1
 LinEq1:  Iter=  6 NonCon=     1 RMS=2.96D-06 Max=3.20D-05 NDo=     1
 LinEq1:  Iter=  7 NonCon=     1 RMS=1.07D-06 Max=1.99D-05 NDo=     1
 LinEq1:  Iter=  8 NonCon=     1 RMS=4.85D-07 Max=5.65D-06 NDo=     1
 LinEq1:  Iter=  9 NonCon=     1 RMS=1.30D-07 Max=1.67D-06 NDo=     1
 LinEq1:  Iter= 10 NonCon=     1 RMS=2.77D-08 Max=2.42D-07 NDo=     1
 LinEq1:  Iter= 11 NonCon=     1 RMS=4.79D-09 Max=4.81D-08 NDo=     1
 LinEq1:  Iter= 12 NonCon=     1 RMS=7.93D-10 Max=8.64D-09 NDo=     1
 LinEq1:  Iter= 13 NonCon=     1 RMS=1.10D-10 Max=1.69D-09 NDo=     1
 LinEq1:  Iter= 14 NonCon=     0 RMS=1.67D-11 Max=1.42D-10 NDo=     1
 Linear equations converged to 1.000D-10 1.000D-09 after    14 iterations.
 End of Minotr F.D. properties file   721 does not exist.
 End of Minotr F.D. properties file   722 does not exist.
 End of Minotr F.D. properties file   788 does not exist.
 Calling FoFJK, ICntrl=  10002127 FMM=F ISym2X=1 I1Cent= 0 IOpClX= 0 NMat=1 NMatS=1 NMatT=0.
 ***** Axes restored to original set *****
 -------------------------------------------------------------------
 Center     Atomic                   Forces (Hartrees/Bohr)
 Number     Number              X              Y              Z
 -------------------------------------------------------------------
      1        6           0.032976140    0.000000000   -0.001603665
      2        8          -0.025799363    0.000000000   -0.012399639
      3        8           0.011982164    0.000000000   -0.008196229
      4        1          -0.019158941    0.000000000    0.022199533
 -------------------------------------------------------------------
 Cartesian Forces:  Max     0.032976140 RMS     0.015758570
 -----------------------------------------------------------------------------------------------
                       Internal Coordinate Forces (Hartree/Bohr or radian)
  Cent   Atom   N1       Length/X         N2         Alpha/Y        N3         Beta/Z          J
 -----------------------------------------------------------------------------------------------
      1  C 
      2  O        1  -0.012400(     1)
      3  O        1   0.014516(     2)      2  -0.000495(     4)
      4  H        1   0.000407(     3)      2  -0.062046(     5)      3   0.000000(     6)     0
 -----------------------------------------------------------------------------------------------
 Internal  Forces:  Max     0.062046474 RMS     0.026503567

 GradGradGradGradGradGradGradGradGradGradGradGradGradGradGradGradGradGrad
 Berny optimization.
 Search for a local minimum.
 Step number   2 out of a maximum of   20
 All quantities printed in internal units (Hartrees-Bohrs-Radians)
 Update second derivatives using D2CorN and points    1    2
 DE= -2.18D-03 DEPred=-2.17D-03 R= 1.00D+00
 TightC=F SS=  1.41D+00  RLast= 8.80D-02 DXNew= 5.0454D-01 2.6409D-01
 Trust test= 1.00D+00 RLast= 8.80D-02 DXMaxT set to 3.00D-01
 The second derivative matrix:
                          R1        R2        A1        A2
           R1           1.42045
           R2           0.07756   0.26434
           A1           0.03487  -0.04823   0.56441
           A2          -0.06487  -0.01498   0.21096   0.30055
 ITU=  1  0
     Eigenvalues ---    0.25102   0.57139   1.426791000.00000
 RFO step:  Lambda=-3.22450353D-06 EMin= 2.51020141D-01
 Quartic linear search produced a step of  0.01318.
 Variable       Old X    -DE/DX   Delta X   Delta X   Delta X     New X
                                 (Linear)    (Quad)   (Total)
    R1        2.38576   0.00212   0.00011   0.00136   0.00147   2.38723
    R2        2.11611   0.00041  -0.00014   0.00109   0.00096   2.11707
    A1        2.18503  -0.00050  -0.00115   0.00026  -0.00089   2.18414
    A2        2.26893  -0.06205   0.00000   0.00000   0.00000   2.26893
         Item               Value     Threshold  Converged?
 Maximum Force            0.002116     0.000450     NO 
 RMS     Force            0.001277     0.000300     NO 
 Maximum Displacement     0.001469     0.001800     YES
 RMS     Displacement     0.000983     0.001200     YES
 Predicted change in Energy=-1.957163D-06
 GradGradGradGradGradGradGradGradGradGradGradGradGradGradGradGradGradGrad

 ---------------------------------------------------------------------------------------------------
                            Z-MATRIX (ANGSTROMS AND DEGREES)
   CD    Cent   Atom    N1       Length/X        N2       Alpha/Y        N3        Beta/Z          J
 ---------------------------------------------------------------------------------------------------
      1      1  C 
      2      2  O        1   1.263269(     1)
      3      3  O        1   1.263269(     2)      2  125.142(     4)
      4      4  H        1   1.120306(     3)      2  130.000(     5)      3  180.000(     6)      0
 ---------------------------------------------------------------------------------------------------
                         Z-Matrix orientation:                         
 ---------------------------------------------------------------------
 Center     Atomic      Atomic             Coordinates (Angstroms)
 Number     Number       Type             X           Y           Z
 ---------------------------------------------------------------------
      1          6           0        0.000000    0.000000    0.000000
      2          8           0        0.000000    0.000000    1.263269
      3          8           0        1.033010    0.000000   -0.727143
      4          1           0       -0.858204    0.000000   -0.720119
 ---------------------------------------------------------------------
                    Distance matrix (angstroms):
                    1          2          3          4
     1  C    0.000000
     2  O    1.263269   0.000000
     3  O    1.263269   2.242510   0.000000
     4  H    1.120306   2.161097   1.891227   0.000000
 Stoichiometry    CHO2(1-)
 Framework group  CS[SG(CHO2)]
 Deg. of freedom     5
 Full point group                 CS      NOp   2
 Largest Abelian subgroup         CS      NOp   2
 Largest concise Abelian subgroup C1      NOp   1
                         Standard orientation:                         
 ---------------------------------------------------------------------
 Center     Atomic      Atomic             Coordinates (Angstroms)
 Number     Number       Type             X           Y           Z
 ---------------------------------------------------------------------
      1          6           0        0.000000    0.357433    0.000000
      2          8           0        1.138021   -0.190979    0.000000
      3          8           0       -1.103502   -0.257492    0.000000
      4          1           0       -0.276158    1.443168    0.000000
 ---------------------------------------------------------------------
 Rotational constants (GHZ):          96.8611383          12.5465310          11.1077339
 Standard basis: Aug-CC-pVTZ (5D, 7F)
 There are   129 symmetry adapted cartesian basis functions of A'  symmetry.
 There are    61 symmetry adapted cartesian basis functions of A"  symmetry.
 There are   106 symmetry adapted basis functions of A'  symmetry.
 There are    55 symmetry adapted basis functions of A"  symmetry.
   161 basis functions,   243 primitive gaussians,   190 cartesian basis functions
    12 alpha electrons       12 beta electrons
       nuclear repulsion energy        62.3478439030 Hartrees.
 NAtoms=    4 NActive=    4 NUniq=    4 SFac= 1.00D+00 NAtFMM=   60 NAOKFM=F Big=F
 Integral buffers will be    131072 words long.
 Raffenetti 1 integral format.
 Two-electron integral symmetry is turned on.
 One-electron integrals computed using PRISM.
 NBasis=   161 RedAO= T EigKep=  9.32D-05  NBF=   106    55
 NBsUse=   161 1.00D-06 EigRej= -1.00D+00 NBFU=   106    55
 Initial guess from the checkpoint file:  "C:\Users\Garrett\Downloads\NanoclusterOutput\Gau-4092.chk"
 B after Tr=     0.000000    0.000000    0.000000
         Rot=    1.000000    0.000000    0.000000    0.000064 Ang=   0.01 deg.
 Initial guess orbital symmetries:
       Occupied  (A') (A') (A') (A') (A') (A') (A') (A') (A") (A')
                 (A') (A")
       Virtual   (A') (A') (A") (A') (A') (A') (A') (A") (A") (A')
                 (A') (A') (A") (A') (A") (A') (A') (A') (A') (A")
                 (A") (A') (A') (A") (A') (A') (A') (A') (A') (A")
                 (A') (A') (A") (A') (A") (A") (A') (A") (A') (A')
                 (A') (A") (A') (A') (A') (A") (A") (A') (A') (A")
                 (A') (A') (A") (A') (A') (A") (A') (A") (A') (A")
                 (A') (A') (A") (A') (A') (A') (A') (A") (A') (A")
                 (A") (A') (A") (A') (A") (A') (A') (A') (A') (A")
                 (A') (A") (A') (A") (A') (A') (A") (A") (A') (A')
                 (A') (A") (A') (A") (A') (A') (A") (A') (A') (A")
                 (A') (A") (A') (A") (A') (A') (A') (A") (A') (A')
                 (A") (A') (A") (A') (A") (A") (A') (A') (A') (A')
                 (A') (A') (A') (A") (A") (A') (A") (A") (A') (A')
                 (A") (A') (A") (A") (A') (A') (A') (A") (A') (A")
                 (A") (A') (A') (A') (A') (A') (A') (A') (A')
 Keep R1 ints in memory in symmetry-blocked form, NReq=128070129.
 Requested convergence on RMS density matrix=1.00D-08 within 128 cycles.
 Requested convergence on MAX density matrix=1.00D-06.
 Requested convergence on             energy=1.00D-06.
 No special actions if energy rises.
 SCF Done:  E(RHF) =  -188.263169581     A.U. after    7 cycles
            NFock=  7  Conv=0.48D-08     -V/T= 2.0017
 ExpMin= 2.53D-02 ExpMax= 1.53D+04 ExpMxC= 5.22D+02 IAcc=3 IRadAn=         5 AccDes= 0.00D+00
 HarFok:  IExCor=  205 AccDes= 0.00D+00 IRadAn=         5 IDoV=-2 UseB2=F ITyADJ=14
 ICtDFT= 12500011 ScaDFX=  1.000000  1.000000  1.000000  1.000000
 Range of M.O.s used for correlation:     4   161
 NBasis=   161 NAE=    12 NBE=    12 NFC=     3 NFV=     0
 NROrb=    158 NOA=     9 NOB=     9 NVA=   149 NVB=   149

 **** Warning!!: The largest alpha MO coefficient is  0.32198058D+02

 Fully direct method using O(ONN) memory.
 JobTyp=1 Pass  1:  I=   4 to  12 NPSUse=  2 ParTrn=T ParDer=T DoDerP=T.
 Spin components of T(2) and E(2):
     alpha-alpha T2 =       0.2493390150D-01 E2=     -0.8647374134D-01
     alpha-beta  T2 =       0.1305978418D+00 E2=     -0.4866972598D+00
     beta-beta   T2 =       0.2493390150D-01 E2=     -0.8647374134D-01
 ANorm=    0.1086492358D+01
 E2 =    -0.6596447425D+00 EUMP2 =    -0.18892281432304D+03
          IDoAtm=1111
          Differentiating once with respect to electric field.
                with respect to dipole field.
          Differentiating once with respect to nuclear coordinates.
 Keep R1 ints in memory in symmetry-blocked form, NReq=128071153.
          There are     1 degrees of freedom in the 1st order CPHF.  IDoFFX=0 NUNeed=     1.
 LinEq1:  Iter=  0 NonCon=     1 RMS=6.59D-03 Max=1.05D-01 NDo=     1
 AX will form     1 AO Fock derivatives at one time.
 LinEq1:  Iter=  1 NonCon=     1 RMS=1.61D-03 Max=1.71D-02 NDo=     1
 LinEq1:  Iter=  2 NonCon=     1 RMS=5.77D-04 Max=6.81D-03 NDo=     1
 LinEq1:  Iter=  3 NonCon=     1 RMS=2.11D-04 Max=2.25D-03 NDo=     1
 LinEq1:  Iter=  4 NonCon=     1 RMS=6.32D-05 Max=6.86D-04 NDo=     1
 LinEq1:  Iter=  5 NonCon=     1 RMS=1.31D-05 Max=1.26D-04 NDo=     1
 LinEq1:  Iter=  6 NonCon=     1 RMS=2.97D-06 Max=3.21D-05 NDo=     1
 LinEq1:  Iter=  7 NonCon=     1 RMS=1.07D-06 Max=1.99D-05 NDo=     1
 LinEq1:  Iter=  8 NonCon=     1 RMS=4.86D-07 Max=5.67D-06 NDo=     1
 LinEq1:  Iter=  9 NonCon=     1 RMS=1.30D-07 Max=1.68D-06 NDo=     1
 LinEq1:  Iter= 10 NonCon=     1 RMS=2.79D-08 Max=2.44D-07 NDo=     1
 LinEq1:  Iter= 11 NonCon=     1 RMS=4.82D-09 Max=4.82D-08 NDo=     1
 LinEq1:  Iter= 12 NonCon=     1 RMS=7.99D-10 Max=8.65D-09 NDo=     1
 LinEq1:  Iter= 13 NonCon=     1 RMS=1.11D-10 Max=1.70D-09 NDo=     1
 LinEq1:  Iter= 14 NonCon=     0 RMS=1.69D-11 Max=1.43D-10 NDo=     1
 Linear equations converged to 1.000D-10 1.000D-09 after    14 iterations.
 End of Minotr F.D. properties file   721 does not exist.
 End of Minotr F.D. properties file   722 does not exist.
 End of Minotr F.D. properties file   788 does not exist.
 Calling FoFJK, ICntrl=  10002127 FMM=F ISym2X=1 I1Cent= 0 IOpClX= 0 NMat=1 NMatS=1 NMatT=0.
 ***** Axes restored to original set *****
 -------------------------------------------------------------------
 Center     Atomic                   Forces (Hartrees/Bohr)
 Number     Number              X              Y              Z
 -------------------------------------------------------------------
      1        6           0.033647769    0.000000000   -0.001281314
      2        8          -0.025861358    0.000000000   -0.013367589
      3        8           0.010983510    0.000000000   -0.007703038
      4        1          -0.018769921    0.000000000    0.022351941
 -------------------------------------------------------------------
 Cartesian Forces:  Max     0.033647769 RMS     0.015846161
 -----------------------------------------------------------------------------------------------
                       Internal Coordinate Forces (Hartree/Bohr or radian)
  Cent   Atom   N1       Length/X         N2         Alpha/Y        N3         Beta/Z          J
 -----------------------------------------------------------------------------------------------
      1  C 
      2  O        1  -0.013368(     1)
      3  O        1   0.013415(     2)      2  -0.000055(     4)
      4  H        1   0.000011(     3)      2  -0.061792(     5)      3   0.000000(     6)     0
 -----------------------------------------------------------------------------------------------
 Internal  Forces:  Max     0.061792330 RMS     0.026384849

 GradGradGradGradGradGradGradGradGradGradGradGradGradGradGradGradGradGrad
 Berny optimization.
 Search for a local minimum.
 Step number   3 out of a maximum of   20
 All quantities printed in internal units (Hartrees-Bohrs-Radians)
 Update second derivatives using D2CorN and points    1    2    3
 DE= -2.05D-06 DEPred=-1.96D-06 R= 1.05D+00
 TightC=F SS=  1.41D+00  RLast= 1.97D-03 DXNew= 5.0454D-01 5.8978D-03
 Trust test= 1.05D+00 RLast= 1.97D-03 DXMaxT set to 3.00D-01
 The second derivative matrix:
                          R1        R2        A1        A2
           R1           1.39833
           R2           0.06866   0.26125
           A1           0.05607  -0.03948   0.55381
           A2          -0.05696  -0.01047   0.20276   0.30055
 ITU=  1  1  0
     Eigenvalues ---    0.25103   0.55652   1.405841000.00000
 RFO step:  Lambda= 0.00000000D+00 EMin= 2.51028449D-01
 Quartic linear search produced a step of  0.03302.
 Variable       Old X    -DE/DX   Delta X   Delta X   Delta X     New X
                                 (Linear)    (Quad)   (Total)
    R1        2.38723   0.00005   0.00005  -0.00001   0.00004   2.38727
    R2        2.11707   0.00001   0.00003  -0.00002   0.00001   2.11708
    A1        2.18414  -0.00006  -0.00003  -0.00007  -0.00010   2.18404
    A2        2.26893  -0.06179   0.00000   0.00000   0.00000   2.26893
         Item               Value     Threshold  Converged?
 Maximum Force            0.000055     0.000450     YES
 RMS     Force            0.000043     0.000300     YES
 Maximum Displacement     0.000101     0.001800     YES
 RMS     Displacement     0.000054     0.001200     YES
 Predicted change in Energy=-3.818936D-09
 Optimization completed.
    -- Stationary point found.
                       ----------------------------
                       !   Optimized Parameters   !
                       ! (Angstroms and Degrees)  !
 ----------------------                            ----------------------
 !      Name          Value   Derivative information (Atomic Units)     !
 ------------------------------------------------------------------------
 !       R1          1.2633   -DE/DX =    0.0                           !
 !       R2          1.1203   -DE/DX =    0.0                           !
 !       A1        125.142    -DE/DX =   -0.0001                        !
 !       A2        130.0      -DE/DX =   -0.0618                        !
 ------------------------------------------------------------------------
 GradGradGradGradGradGradGradGradGradGradGradGradGradGradGradGradGradGrad

 ---------------------------------------------------------------------------------------------------
                            Z-MATRIX (ANGSTROMS AND DEGREES)
   CD    Cent   Atom    N1       Length/X        N2       Alpha/Y        N3        Beta/Z          J
 ---------------------------------------------------------------------------------------------------
      1      1  C 
      2      2  O        1   1.263269(     1)
      3      3  O        1   1.263269(     2)      2  125.142(     4)
      4      4  H        1   1.120306(     3)      2  130.000(     5)      3  180.000(     6)      0
 ---------------------------------------------------------------------------------------------------
                         Z-Matrix orientation:                         
 ---------------------------------------------------------------------
 Center     Atomic      Atomic             Coordinates (Angstroms)
 Number     Number       Type             X           Y           Z
 ---------------------------------------------------------------------
      1          6           0        0.000000    0.000000    0.000000
      2          8           0        0.000000    0.000000    1.263269
      3          8           0        1.033010    0.000000   -0.727143
      4          1           0       -0.858204    0.000000   -0.720119
 ---------------------------------------------------------------------
                    Distance matrix (angstroms):
                    1          2          3          4
     1  C    0.000000
     2  O    1.263269   0.000000
     3  O    1.263269   2.242510   0.000000
     4  H    1.120306   2.161097   1.891227   0.000000
 Stoichiometry    CHO2(1-)
 Framework group  CS[SG(CHO2)]
 Deg. of freedom     5
 Full point group                 CS      NOp   2
 Largest Abelian subgroup         CS      NOp   2
 Largest concise Abelian subgroup C1      NOp   1
                         Standard orientation:                         
 ---------------------------------------------------------------------
 Center     Atomic      Atomic             Coordinates (Angstroms)
 Number     Number       Type             X           Y           Z
 ---------------------------------------------------------------------
      1          6           0        0.000000    0.357433    0.000000
      2          8           0        1.138021   -0.190979    0.000000
      3          8           0       -1.103502   -0.257492    0.000000
      4          1           0       -0.276158    1.443168    0.000000
 ---------------------------------------------------------------------
 Rotational constants (GHZ):          96.8611383          12.5465310          11.1077339

 **********************************************************************

            Population analysis using the SCF Density.

 **********************************************************************

 Orbital symmetries:
       Occupied  (A') (A') (A') (A') (A') (A') (A') (A') (A") (A')
                 (A') (A")
       Virtual   (A') (A') (A") (A') (A') (A') (A') (A") (A") (A')
                 (A') (A") (A') (A') (A") (A') (A') (A') (A') (A")
                 (A") (A') (A') (A") (A') (A') (A') (A') (A') (A")
                 (A') (A') (A") (A') (A") (A") (A') (A") (A') (A')
                 (A') (A") (A') (A') (A') (A") (A") (A') (A') (A")
                 (A') (A') (A") (A') (A') (A") (A') (A") (A') (A")
                 (A') (A') (A") (A') (A') (A') (A') (A") (A') (A")
                 (A") (A') (A") (A') (A") (A') (A') (A') (A') (A")
                 (A') (A") (A') (A") (A') (A') (A") (A") (A') (A')
                 (A') (A") (A') (A") (A') (A') (A") (A') (A') (A")
                 (A') (A") (A') (A") (A') (A') (A') (A") (A') (A')
                 (A") (A') (A") (A') (A") (A") (A') (A') (A') (A')
                 (A') (A') (A') (A") (A") (A') (A") (A") (A') (A')
                 (A") (A') (A") (A") (A') (A') (A') (A") (A') (A")
                 (A") (A') (A') (A') (A') (A') (A') (A') (A')
 The electronic state is 1-A'.
 Alpha  occ. eigenvalues --  -20.29088 -20.28045 -11.12476  -1.15214  -1.04937
 Alpha  occ. eigenvalues --   -0.56070  -0.42832  -0.37911  -0.33608  -0.20257
 Alpha  occ. eigenvalues --   -0.19022  -0.18116
 Alpha virt. eigenvalues --    0.14285   0.21229   0.21373   0.21769   0.27954
 Alpha virt. eigenvalues --    0.31856   0.32902   0.34092   0.36060   0.36315
 Alpha virt. eigenvalues --    0.39785   0.41852   0.41854   0.45294   0.48907
 Alpha virt. eigenvalues --    0.49055   0.52237   0.54858   0.57549   0.59399
 Alpha virt. eigenvalues --    0.62206   0.67202   0.71048   0.72454   0.78667
 Alpha virt. eigenvalues --    0.81013   0.89187   0.90159   0.94309   0.97117
 Alpha virt. eigenvalues --    0.99947   1.03180   1.03415   1.06636   1.07460
 Alpha virt. eigenvalues --    1.09563   1.09953   1.11920   1.12268   1.16060
 Alpha virt. eigenvalues --    1.20803   1.21053   1.23072   1.26084   1.29215
 Alpha virt. eigenvalues --    1.29912   1.31878   1.37609   1.42525   1.44281
 Alpha virt. eigenvalues --    1.48516   1.55300   1.56183   1.62676   1.65888
 Alpha virt. eigenvalues --    1.68558   1.76185   1.76932   1.80056   1.88790
 Alpha virt. eigenvalues --    1.91507   1.96518   2.11984   2.12895   2.21091
 Alpha virt. eigenvalues --    2.32254   2.42007   2.43364   2.45997   2.47250
 Alpha virt. eigenvalues --    2.57592   2.62695   2.62808   2.64642   2.65086
 Alpha virt. eigenvalues --    2.65872   2.71816   2.72934   2.78243   2.80997
 Alpha virt. eigenvalues --    2.82961   2.87131   2.92094   2.93771   3.00016
 Alpha virt. eigenvalues --    3.08810   3.13302   3.14923   3.15201   3.22114
 Alpha virt. eigenvalues --    3.32782   3.44184   3.45010   3.56283   3.62018
 Alpha virt. eigenvalues --    3.76647   3.78884   3.84158   4.04184   4.05653
 Alpha virt. eigenvalues --    4.20983   4.24130   4.28368   4.29613   4.39309
 Alpha virt. eigenvalues --    4.42453   4.51926   4.52016   4.72380   4.80736
 Alpha virt. eigenvalues --    4.87526   5.04814   5.21005   5.27593   5.33672
 Alpha virt. eigenvalues --    5.43450   5.44431   5.52616   5.82318   6.17172
 Alpha virt. eigenvalues --    6.50929   6.59368   6.85865   6.85963   6.87003
 Alpha virt. eigenvalues --    6.88551   7.06945   7.10169   7.10400   7.20201
 Alpha virt. eigenvalues --    7.28276   7.33362   7.38654   7.44190   7.46391
 Alpha virt. eigenvalues --    7.48218   7.53986   7.56677   7.73099   7.80967
 Alpha virt. eigenvalues --    7.83399   7.87467   7.93269   8.02727   8.12529
 Alpha virt. eigenvalues --    8.24807  13.40369  15.39456  16.57245
          Condensed to atoms (all electrons):
               1          2          3          4
     1  C    4.921465   0.440474   0.411635   0.266134
     2  O    0.440474   8.413560  -0.123902  -0.038185
     3  O    0.411635  -0.123902   8.464465  -0.050099
     4  H    0.266134  -0.038185  -0.050099   0.388394
 Mulliken charges:
               1
     1  C   -0.039708
     2  O   -0.691947
     3  O   -0.702099
     4  H    0.433755
 Sum of Mulliken charges =  -1.00000
 Mulliken charges with hydrogens summed into heavy atoms:
               1
     1  C    0.394047
     2  O   -0.691947
     3  O   -0.702099
 Electronic spatial extent (au):  <R**2>=            136.1262
 Charge=             -1.0000 electrons
 Dipole moment (field-independent basis, Debye):
    X=             -0.1234    Y=              2.1099    Z=              0.0000  Tot=              2.1135
 Quadrupole moment (field-independent basis, Debye-Ang):
   XX=            -29.6095   YY=            -19.9712   ZZ=            -18.9562
   XY=             -0.6347   XZ=              0.0000   YZ=              0.0000
 Traceless Quadrupole moment (field-independent basis, Debye-Ang):
   XX=             -6.7639   YY=              2.8745   ZZ=              3.8894
   XY=             -0.6347   XZ=              0.0000   YZ=              0.0000
 Octapole moment (field-independent basis, Debye-Ang**2):
  XXX=             -0.1763  YYY=             -0.7338  ZZZ=              0.0000  XYY=             -0.1883
  XXY=              0.9768  XXZ=              0.0000  XZZ=              0.0785  YZZ=             -0.2080
  YYZ=              0.0000  XYZ=              0.0000
 Hexadecapole moment (field-independent basis, Debye-Ang**3):
 XXXX=           -136.5977 YYYY=            -43.4424 ZZZZ=            -19.9400 XXXY=             -1.1683
 XXXZ=              0.0000 YYYX=             -1.3267 YYYZ=              0.0000 ZZZX=              0.0000
 ZZZY=              0.0000 XXYY=            -27.7296 XXZZ=            -24.6747 YYZZ=            -10.3930
 XXYZ=              0.0000 YYXZ=              0.0000 ZZXY=             -0.1809
 N-N= 6.234784390303D+01 E-N=-5.768053327165D+02  KE= 1.879348272066D+02
 Symmetry A'   KE= 1.803255935962D+02
 Symmetry A"   KE= 7.609233610423D+00
 1|1|UNPC-DESKTOP-F4NP0R6|POpt|RMP2-FC|Aug-CC-pVTZ|C1H1O2(1-)|GARRETT|2
 3-Jul-2018|1||# MP2 Aug-cc-pvTZ opt=(noeigen,calcfc,z-matrix)||Formate
 ||-1,1|C|O,1,R1|O,1,R1,2,A1|H,1,R2,2,A2,3,180.,0||R1=1.26326868|R2=1.1
 2030566|A1=125.14198049|A2=130.||Version=EM64W-G16RevB.01|State=1-A'|H
 F=-188.2631696|MP2=-188.9228143|RMSD=4.774e-009|RMSF=1.585e-002|Dipole
 =-0.5660348,0.,-0.3106838|PG=CS [SG(C1H1O2)]||@


 DEMOCRATS BUY MOST OF THE BOOKS THAT HAVE BEEN
 BANNED; REPUBLICANS FORM CENSORSHIP COMMITTEES AND
 READ THEM AS A GROUP.
 Job cpu time:       0 days  0 hours 50 minutes  4.0 seconds.
 Elapsed time:       0 days  0 hours 48 minutes 59.5 seconds.
 File lengths (MBytes):  RWF=   2790 Int=      0 D2E=      0 Chk=      4 Scr=      1
 Normal termination of Gaussian 16 at Mon Jul 23 18:37:08 2018.
