 Entering Link 1 = C:\G16W\l1.exe PID=     21856.
  
 Copyright (c) 1988-2017, Gaussian, Inc.  All Rights Reserved.
  
 This is part of the Gaussian(R) 16 program.  It is based on
 the Gaussian(R) 09 system (copyright 2009, Gaussian, Inc.),
 the Gaussian(R) 03 system (copyright 2003, Gaussian, Inc.),
 the Gaussian(R) 98 system (copyright 1998, Gaussian, Inc.),
 the Gaussian(R) 94 system (copyright 1995, Gaussian, Inc.),
 the Gaussian 92(TM) system (copyright 1992, Gaussian, Inc.),
 the Gaussian 90(TM) system (copyright 1990, Gaussian, Inc.),
 the Gaussian 88(TM) system (copyright 1988, Gaussian, Inc.),
 the Gaussian 86(TM) system (copyright 1986, Carnegie Mellon
 University), and the Gaussian 82(TM) system (copyright 1983,
 Carnegie Mellon University). Gaussian is a federally registered
 trademark of Gaussian, Inc.
  
 This software contains proprietary and confidential information,
 including trade secrets, belonging to Gaussian, Inc.
  
 This software is provided under written license and may be
 used, copied, transmitted, or stored only in accord with that
 written license.
  
 The following legend is applicable only to US Government
 contracts under FAR:
  
                    RESTRICTED RIGHTS LEGEND
  
 Use, reproduction and disclosure by the US Government is
 subject to restrictions as set forth in subparagraphs (a)
 and (c) of the Commercial Computer Software - Restricted
 Rights clause in FAR 52.227-19.
  
 Gaussian, Inc.
 340 Quinnipiac St., Bldg. 40, Wallingford CT 06492
  
  
 ---------------------------------------------------------------
 Warning -- This program may not be used in any manner that
 competes with the business of Gaussian, Inc. or will provide
 assistance to any competitor of Gaussian, Inc.  The licensee
 of this program is prohibited from giving any competitor of
 Gaussian, Inc. access to this program.  By using this program,
 the user acknowledges that Gaussian, Inc. is engaged in the
 business of creating and licensing software in the field of
 computational chemistry and represents and warrants to the
 licensee that it is not a competitor of Gaussian, Inc. and that
 it will not use this program in any manner prohibited above.
 ---------------------------------------------------------------
  

 Cite this work as:
 Gaussian 16, Revision B.01,
 M. J. Frisch, G. W. Trucks, H. B. Schlegel, G. E. Scuseria, 
 M. A. Robb, J. R. Cheeseman, G. Scalmani, V. Barone, 
 G. A. Petersson, H. Nakatsuji, X. Li, M. Caricato, A. V. Marenich, 
 J. Bloino, B. G. Janesko, R. Gomperts, B. Mennucci, H. P. Hratchian, 
 J. V. Ortiz, A. F. Izmaylov, J. L. Sonnenberg, D. Williams-Young, 
 F. Ding, F. Lipparini, F. Egidi, J. Goings, B. Peng, A. Petrone, 
 T. Henderson, D. Ranasinghe, V. G. Zakrzewski, J. Gao, N. Rega, 
 G. Zheng, W. Liang, M. Hada, M. Ehara, K. Toyota, R. Fukuda, 
 J. Hasegawa, M. Ishida, T. Nakajima, Y. Honda, O. Kitao, H. Nakai, 
 T. Vreven, K. Throssell, J. A. Montgomery, Jr., J. E. Peralta, 
 F. Ogliaro, M. J. Bearpark, J. J. Heyd, E. N. Brothers, K. N. Kudin, 
 V. N. Staroverov, T. A. Keith, R. Kobayashi, J. Normand, 
 K. Raghavachari, A. P. Rendell, J. C. Burant, S. S. Iyengar, 
 J. Tomasi, M. Cossi, J. M. Millam, M. Klene, C. Adamo, R. Cammi, 
 J. W. Ochterski, R. L. Martin, K. Morokuma, O. Farkas, 
 J. B. Foresman, and D. J. Fox, Gaussian, Inc., Wallingford CT, 2016.
 
 ******************************************
 Gaussian 16:  EM64W-G16RevB.01 16-Dec-2017
                24-Jul-2018 
 ******************************************
 %nproc=2
 Will use up to    2 processors via shared memory.
 %mem=4gb
 -----------------------------------------------
 # MP2 Aug-cc-pvTZ opt=(noeigen,calcfc,z-matrix)
 -----------------------------------------------
 1/10=4,11=1,18=40,38=1/1,3;
 2/12=2,17=6,18=5,29=3,40=1/2;
 3/5=16,6=1,7=10,11=9,25=1,30=1,71=2,140=1/1,2,3;
 4//1;
 5/5=2,38=5/2;
 8/6=3,8=1,10=1,19=11,30=-1/1;
 9/15=3,16=-3/6;
 11/6=1,8=1,15=11,17=12,24=-1,27=1,28=-2,29=300,32=6,42=3/1,2,10;
 10/6=2,21=1/2;
 8/6=4,8=1,10=1,19=11,30=-1/11,4;
 10/5=1,20=4/2;
 11/12=2,14=11,16=1,17=2,28=-2,42=3,76=2/2,10,12;
 6/7=2,8=2,9=2,10=2/1;
 7/10=1,12=2,25=1,44=2/1,2,3,16;
 1/10=4,11=1,18=40/3(2);
 2/29=3/2;
 99//99;
 2/29=3/2;
 3/5=16,6=1,7=10,11=9,25=1,30=1,71=1/1,2,3;
 4/5=5,16=3,69=1/1;
 5/5=2,38=5/2;
 8/6=4,10=1/1;
 9/15=2,16=-3/6;
 10/5=1/2;
 7/12=2/1,2,3,16;
 1/11=1,18=40/3(-8);
 2/29=3/2;
 6/7=2,8=2,9=2,10=2/1;
 99/9=10/99;
 -------
 Formate
 -------
 Symbolic Z-matrix:
 Charge = -1 Multiplicity = 1
 C
 O                    1    R1
 O                    1    R1       2    A1
 H                    1    R2       2    A2       3     180.     0
       Variables:
  R1                    1.25827                  
  R2                    1.12525                  
  A2                  114.9094                   
       Constants:
  A1                  120.                       
 

 GradGradGradGradGradGradGradGradGradGradGradGradGradGradGradGradGradGrad
 Berny optimization.
 Initialization pass.
                       ----------------------------
                       !    Initial Parameters    !
                       ! (Angstroms and Degrees)  !
 ----------------------                            ----------------------
 !      Name          Value   Derivative information (Atomic Units)     !
 ------------------------------------------------------------------------
 !       R1          1.2583   calculate D2E/DX2 analytically            !
 !       R2          1.1253   calculate D2E/DX2 analytically            !
 !       A2        114.9094   calculate D2E/DX2 analytically            !
 !       A1        120.0      frozen, calculate D2E/DX2 analytically    !
 ------------------------------------------------------------------------
 Trust Radius=3.00D-01 FncErr=1.00D-07 GrdErr=1.00D-07 EigMax=2.50D+02 EigMin=1.00D-04
 Number of steps in this run=     20 maximum allowed number of steps=    100.
 GradGradGradGradGradGradGradGradGradGradGradGradGradGradGradGradGradGrad

 ---------------------------------------------------------------------------------------------------
                            Z-MATRIX (ANGSTROMS AND DEGREES)
   CD    Cent   Atom    N1       Length/X        N2       Alpha/Y        N3        Beta/Z          J
 ---------------------------------------------------------------------------------------------------
      1      1  C 
      2      2  O        1   1.258269(     1)
      3      3  O        1   1.258269(     2)      2  120.000(     4)
      4      4  H        1   1.125251(     3)      2  114.909(     5)      3  180.000(     6)      0
 ---------------------------------------------------------------------------------------------------
                         Z-Matrix orientation:                         
 ---------------------------------------------------------------------
 Center     Atomic      Atomic             Coordinates (Angstroms)
 Number     Number       Type             X           Y           Z
 ---------------------------------------------------------------------
      1          6           0        0.000000    0.000000    0.000000
      2          8           0        0.000000    0.000000    1.258269
      3          8           0        1.089693    0.000000   -0.629135
      4          1           0       -1.020575    0.000000   -0.473938
 ---------------------------------------------------------------------
                    Distance matrix (angstroms):
                    1          2          3          4
     1  C    0.000000
     2  O    1.258269   0.000000
     3  O    1.258269   2.179387   0.000000
     4  H    1.125251   2.010502   2.115967   0.000000
 Stoichiometry    CHO2(1-)
 Framework group  CS[SG(CHO2)]
 Deg. of freedom     5
 Full point group                 CS      NOp   2
 Largest Abelian subgroup         CS      NOp   2
 Largest concise Abelian subgroup C1      NOp   1
                         Standard orientation:                         
 ---------------------------------------------------------------------
 Center     Atomic      Atomic             Coordinates (Angstroms)
 Number     Number       Type             X           Y           Z
 ---------------------------------------------------------------------
      1          6           0        0.000000    0.388952    0.000000
      2          8           0       -1.082604   -0.252305    0.000000
      3          8           0        1.096647   -0.227981    0.000000
      4          1           0       -0.112348    1.508581    0.000000
 ---------------------------------------------------------------------
 Rotational constants (GHZ):          85.5462523          13.3007403          11.5110076
 Standard basis: Aug-CC-pVTZ (5D, 7F)
 There are   129 symmetry adapted cartesian basis functions of A'  symmetry.
 There are    61 symmetry adapted cartesian basis functions of A"  symmetry.
 There are   106 symmetry adapted basis functions of A'  symmetry.
 There are    55 symmetry adapted basis functions of A"  symmetry.
   161 basis functions,   243 primitive gaussians,   190 cartesian basis functions
    12 alpha electrons       12 beta electrons
       nuclear repulsion energy        62.8415654872 Hartrees.
 NAtoms=    4 NActive=    4 NUniq=    4 SFac= 1.00D+00 NAtFMM=   60 NAOKFM=F Big=F
 Integral buffers will be    131072 words long.
 Raffenetti 1 integral format.
 Two-electron integral symmetry is turned on.
 One-electron integrals computed using PRISM.
 NBasis=   161 RedAO= T EigKep=  9.48D-05  NBF=   106    55
 NBsUse=   161 1.00D-06 EigRej= -1.00D+00 NBFU=   106    55
 ExpMin= 2.53D-02 ExpMax= 1.53D+04 ExpMxC= 5.22D+02 IAcc=3 IRadAn=         5 AccDes= 0.00D+00
 Harris functional with IExCor=  205 and IRadAn=       5 diagonalized for initial guess.
 HarFok:  IExCor=  205 AccDes= 0.00D+00 IRadAn=         5 IDoV= 1 UseB2=F ITyADJ=14
 ICtDFT=  3500011 ScaDFX=  1.000000  1.000000  1.000000  1.000000
 FoFCou: FMM=F IPFlag=           0 FMFlag=      100000 FMFlg1=           0
         NFxFlg=           0 DoJE=T BraDBF=F KetDBF=T FulRan=T
         wScrn=  0.000000 ICntrl=       500 IOpCl=  0 I1Cent=   200000004 NGrid=           0
         NMat0=    1 NMatS0=      1 NMatT0=    0 NMatD0=    1 NMtDS0=    0 NMtDT0=    0
 Petite list used in FoFCou.
 Initial guess orbital symmetries:
       Occupied  (A') (A') (A') (A') (A') (A') (A') (A') (A") (A")
                 (A') (A')
       Virtual   (A") (A') (A') (A') (A") (A') (A') (A') (A') (A")
                 (A") (A') (A') (A') (A") (A') (A') (A') (A") (A')
                 (A") (A') (A') (A') (A") (A') (A') (A') (A') (A")
                 (A') (A') (A") (A") (A") (A') (A') (A") (A') (A')
                 (A') (A") (A') (A") (A') (A") (A') (A') (A") (A')
                 (A') (A') (A") (A') (A') (A") (A") (A') (A') (A")
                 (A') (A') (A') (A") (A') (A') (A') (A") (A") (A')
                 (A") (A") (A') (A") (A') (A') (A') (A') (A') (A")
                 (A') (A') (A") (A") (A') (A') (A") (A") (A') (A')
                 (A') (A') (A") (A") (A') (A') (A') (A") (A') (A")
                 (A") (A') (A") (A') (A') (A') (A') (A") (A') (A')
                 (A") (A') (A") (A") (A') (A') (A") (A') (A') (A')
                 (A') (A') (A') (A") (A") (A') (A") (A") (A') (A')
                 (A") (A') (A") (A') (A") (A') (A") (A') (A') (A")
                 (A") (A') (A') (A') (A') (A') (A') (A') (A')
 The electronic state of the initial guess is 1-A'.
 Keep R1 ints in memory in symmetry-blocked form, NReq=128070129.
 Requested convergence on RMS density matrix=1.00D-08 within 128 cycles.
 Requested convergence on MAX density matrix=1.00D-06.
 Requested convergence on             energy=1.00D-06.
 No special actions if energy rises.
 SCF Done:  E(RHF) =  -188.264825076     A.U. after   12 cycles
            NFock= 12  Conv=0.95D-08     -V/T= 2.0016
 ExpMin= 2.53D-02 ExpMax= 1.53D+04 ExpMxC= 5.22D+02 IAcc=3 IRadAn=         5 AccDes= 0.00D+00
 HarFok:  IExCor=  205 AccDes= 0.00D+00 IRadAn=         5 IDoV=-2 UseB2=F ITyADJ=14
 ICtDFT= 12500011 ScaDFX=  1.000000  1.000000  1.000000  1.000000
 Range of M.O.s used for correlation:     4   161
 NBasis=   161 NAE=    12 NBE=    12 NFC=     3 NFV=     0
 NROrb=    158 NOA=     9 NOB=     9 NVA=   149 NVB=   149

 **** Warning!!: The largest alpha MO coefficient is  0.27664512D+02

 Disk-based method using ON**2 memory for  9 occupieds at a time.
 Permanent disk used for amplitudes=     3924660 words.
 Estimated scratch disk usage=   113146432 words.
 Actual    scratch disk usage=   109232192 words.
 JobTyp=1 Pass  1:  I=   4 to  12 NPSUse=  2 ParTrn=T ParDer=T DoDerP=T.
 (rs|ai) integrals will be sorted in core.
 Spin components of T(2) and E(2):
     alpha-alpha T2 =       0.2477983186D-01 E2=     -0.8628947158D-01
     alpha-beta  T2 =       0.1299790040D+00 E2=     -0.4858882517D+00
     beta-beta   T2 =       0.2477983186D-01 E2=     -0.8628947158D-01
 ANorm=    0.1086065683D+01
 E2 =    -0.6584671949D+00 EUMP2 =    -0.18892329227099D+03
 G2DrvN: will do     5 centers at a time, making    1 passes.
 Calling FoFCou, ICntrl=  3107 FMM=F I1Cent=   0 AccDes= 0.00D+00.
 End of G2Drv F.D. properties file   721 does not exist.
 End of G2Drv F.D. properties file   722 does not exist.
 End of G2Drv F.D. properties file   788 does not exist.
          IDoAtm=1111
          Differentiating once with respect to electric field.
                with respect to dipole field.
          Differentiating once with respect to nuclear coordinates.
 Keep R1 ints in memory in symmetry-blocked form, NReq=128071153.
          There are    15 degrees of freedom in the 1st order CPHF.  IDoFFX=6 NUNeed=    15.
     12 vectors produced by pass  0 Test12= 1.19D-14 6.67D-09 XBig12= 8.81D+00 1.31D+00.
 AX will form    12 AO Fock derivatives at one time.
     12 vectors produced by pass  1 Test12= 1.19D-14 6.67D-09 XBig12= 1.07D+00 3.11D-01.
     12 vectors produced by pass  2 Test12= 1.19D-14 6.67D-09 XBig12= 3.61D-02 4.40D-02.
     12 vectors produced by pass  3 Test12= 1.19D-14 6.67D-09 XBig12= 9.65D-04 7.58D-03.
     12 vectors produced by pass  4 Test12= 1.19D-14 6.67D-09 XBig12= 1.59D-05 8.63D-04.
     12 vectors produced by pass  5 Test12= 1.19D-14 6.67D-09 XBig12= 2.34D-07 1.20D-04.
     12 vectors produced by pass  6 Test12= 1.19D-14 6.67D-09 XBig12= 2.67D-09 1.68D-05.
      9 vectors produced by pass  7 Test12= 1.19D-14 6.67D-09 XBig12= 3.16D-11 1.30D-06.
      3 vectors produced by pass  8 Test12= 1.19D-14 6.67D-09 XBig12= 2.56D-13 1.19D-07.
      1 vectors produced by pass  9 Test12= 1.19D-14 6.67D-09 XBig12= 2.09D-15 9.68D-09.
 InvSVY:  IOpt=1 It=  1 EMax= 8.88D-16
 Solved reduced A of dimension    97 with    12 vectors.
 End of Minotr F.D. properties file   721 does not exist.
 End of Minotr F.D. properties file   722 does not exist.
 End of Minotr F.D. properties file   788 does not exist.
 MDV=   536870912.
 Form MO integral derivatives with frozen-active canonical formalism.
 Discarding MO integrals.
 Reordered first order wavefunction length =      6393888
 In DefCFB: NBatch=  1 ICI= 12 ICA=149 LFMax= 50
            Large arrays: LIAPS=   218779680 LIARS=   130792200 words.
 Semi-Direct transformation.
 ModeAB=           2 MOrb=            12 LenV=     536063007
 LASXX=     23759367 LTotXX=    23759367 LenRXX=    23759367
 LTotAB=    24195042 MaxLAS=    35056140 LenRXY=    35056140
 NonZer=    47518734 LenScr=    72043008 LnRSAI=           0
 LnScr1=           0 LExtra=           0 Total=    130858515
 MaxDsk=          -1 SrtSym=           F ITran=            4
 JobTyp=0 Pass  1:  I=   1 to  12.
 (rs|ai) integrals will be sorted in core.
 Spin components of T(2) and E(2):
     alpha-alpha T2 =       0.2477983186D-01 E2=     -0.8628947158D-01
     alpha-beta  T2 =       0.1299790040D+00 E2=     -0.4858882517D+00
     beta-beta   T2 =       0.2477983186D-01 E2=     -0.8628947158D-01
 ANorm=    0.1535928818D+01
 E2 =    -0.6584671949D+00 EUMP2 =    -0.18892329227099D+03
          IDoAtm=1111
          Differentiating once with respect to electric field.
                with respect to dipole field.
          Differentiating once with respect to nuclear coordinates.
          There are     1 degrees of freedom in the 1st order CPHF.  IDoFFX=0 NUNeed=     1.
 LinEq1:  Iter=  0 NonCon=     1 RMS=6.55D-03 Max=1.04D-01 NDo=     1
 LinEq1:  Iter=  1 NonCon=     1 RMS=1.60D-03 Max=1.42D-02 NDo=     1
 LinEq1:  Iter=  2 NonCon=     1 RMS=5.70D-04 Max=6.67D-03 NDo=     1
 LinEq1:  Iter=  3 NonCon=     1 RMS=2.10D-04 Max=2.32D-03 NDo=     1
 LinEq1:  Iter=  4 NonCon=     1 RMS=6.28D-05 Max=7.10D-04 NDo=     1
 LinEq1:  Iter=  5 NonCon=     1 RMS=1.33D-05 Max=1.36D-04 NDo=     1
 LinEq1:  Iter=  6 NonCon=     1 RMS=2.92D-06 Max=3.50D-05 NDo=     1
 LinEq1:  Iter=  7 NonCon=     1 RMS=5.82D-07 Max=5.50D-06 NDo=     1
 LinEq1:  Iter=  8 NonCon=     1 RMS=2.28D-07 Max=4.18D-06 NDo=     1
 LinEq1:  Iter=  9 NonCon=     1 RMS=9.51D-08 Max=1.32D-06 NDo=     1
 LinEq1:  Iter= 10 NonCon=     1 RMS=2.21D-08 Max=2.47D-07 NDo=     1
 LinEq1:  Iter= 11 NonCon=     1 RMS=4.02D-09 Max=4.25D-08 NDo=     1
 LinEq1:  Iter= 12 NonCon=     1 RMS=7.83D-10 Max=9.25D-09 NDo=     1
 LinEq1:  Iter= 13 NonCon=     1 RMS=1.15D-10 Max=2.19D-09 NDo=     1
 LinEq1:  Iter= 14 NonCon=     0 RMS=1.53D-11 Max=1.45D-10 NDo=     1
 Linear equations converged to 1.000D-10 1.000D-09 after    14 iterations.
 End of Minotr F.D. properties file   721 does not exist.
 End of Minotr F.D. properties file   722 does not exist.
 End of Minotr F.D. properties file   788 does not exist.
 Symmetrizing basis deriv contribution to polar:
 IMax=3 JMax=2 DiffMx= 0.00D+00
 G2DrvN: will do     5 centers at a time, making    1 passes.
 Calling FoFCou, ICntrl=  3107 FMM=F I1Cent=   0 AccDes= 0.00D+00.
 End of G2Drv F.D. properties file   721 does not exist.
 End of G2Drv F.D. properties file   722 does not exist.
 End of G2Drv F.D. properties file   788 does not exist.
 R2 and R3 integrals will be kept in memory, NReq=   332743010.
 DD1Dir will call FoFMem   1 times, MxPair=       156
 NAB=    78 NAA=     0 NBB=     0.
 Discarding MO integrals.

 **********************************************************************

            Population analysis using the SCF Density.

 **********************************************************************

 Orbital symmetries:
       Occupied  (A') (A') (A') (A') (A') (A') (A') (A') (A") (A')
                 (A') (A")
       Virtual   (A') (A') (A") (A') (A') (A') (A') (A") (A") (A')
                 (A') (A") (A') (A') (A") (A') (A') (A') (A') (A")
                 (A") (A') (A') (A") (A') (A') (A') (A') (A') (A")
                 (A') (A') (A") (A') (A") (A") (A') (A') (A") (A')
                 (A") (A') (A') (A') (A") (A") (A') (A') (A") (A')
                 (A') (A') (A") (A') (A') (A") (A") (A') (A') (A')
                 (A") (A') (A') (A") (A') (A') (A') (A") (A") (A')
                 (A") (A") (A') (A") (A') (A') (A') (A') (A') (A")
                 (A') (A') (A") (A") (A') (A') (A") (A") (A') (A')
                 (A') (A') (A") (A") (A') (A') (A") (A') (A') (A")
                 (A') (A") (A') (A") (A') (A') (A') (A") (A') (A")
                 (A') (A') (A") (A') (A") (A") (A') (A') (A') (A')
                 (A') (A') (A') (A") (A") (A') (A") (A") (A') (A')
                 (A") (A') (A") (A") (A') (A') (A") (A') (A') (A")
                 (A") (A') (A') (A') (A') (A') (A') (A') (A')
 The electronic state is 1-A'.
 Alpha  occ. eigenvalues --  -20.28187 -20.27748 -11.12182  -1.15535  -1.04040
 Alpha  occ. eigenvalues --   -0.56263  -0.42742  -0.37475  -0.33552  -0.20179
 Alpha  occ. eigenvalues --   -0.18822  -0.17474
 Alpha virt. eigenvalues --    0.14150   0.21192   0.21315   0.21859   0.27834
 Alpha virt. eigenvalues --    0.31818   0.33143   0.34524   0.35682   0.36221
 Alpha virt. eigenvalues --    0.40083   0.41615   0.41946   0.44976   0.48947
 Alpha virt. eigenvalues --    0.50044   0.51430   0.54601   0.57235   0.60109
 Alpha virt. eigenvalues --    0.61653   0.68238   0.70289   0.72473   0.78010
 Alpha virt. eigenvalues --    0.80684   0.90800   0.91505   0.93053   0.98197
 Alpha virt. eigenvalues --    0.98334   1.03429   1.03543   1.07532   1.09070
 Alpha virt. eigenvalues --    1.10142   1.10838   1.12068   1.12379   1.14469
 Alpha virt. eigenvalues --    1.19798   1.20320   1.23244   1.25169   1.28626
 Alpha virt. eigenvalues --    1.29988   1.31915   1.39802   1.44536   1.45148
 Alpha virt. eigenvalues --    1.45645   1.54872   1.57798   1.61349   1.65286
 Alpha virt. eigenvalues --    1.69982   1.74148   1.78753   1.80100   1.90905
 Alpha virt. eigenvalues --    1.91010   1.96369   2.09453   2.11908   2.20763
 Alpha virt. eigenvalues --    2.34879   2.40626   2.45498   2.45703   2.49121
 Alpha virt. eigenvalues --    2.58021   2.62584   2.63154   2.65517   2.66225
 Alpha virt. eigenvalues --    2.67202   2.71661   2.74701   2.78946   2.80603
 Alpha virt. eigenvalues --    2.84793   2.89762   2.91760   2.94038   2.99130
 Alpha virt. eigenvalues --    3.08298   3.11827   3.13324   3.17718   3.26377
 Alpha virt. eigenvalues --    3.32587   3.40193   3.43778   3.57151   3.61067
 Alpha virt. eigenvalues --    3.75940   3.77456   3.82317   4.09260   4.09529
 Alpha virt. eigenvalues --    4.20337   4.22230   4.30630   4.31788   4.32452
 Alpha virt. eigenvalues --    4.43135   4.47672   4.52973   4.70925   4.86879
 Alpha virt. eigenvalues --    4.87572   5.18365   5.23990   5.27642   5.31206
 Alpha virt. eigenvalues --    5.39050   5.40455   5.47280   5.78809   6.17648
 Alpha virt. eigenvalues --    6.49856   6.58466   6.85532   6.86472   6.88066
 Alpha virt. eigenvalues --    6.88662   7.07830   7.11438   7.14582   7.16375
 Alpha virt. eigenvalues --    7.26713   7.31721   7.40207   7.42882   7.46431
 Alpha virt. eigenvalues --    7.51689   7.57556   7.57605   7.68309   7.81671
 Alpha virt. eigenvalues --    7.81701   7.88493   7.93803   8.03611   8.14707
 Alpha virt. eigenvalues --    8.24028  13.59904  15.23362  16.39618
          Condensed to atoms (all electrons):
               1          2          3          4
     1  C    4.869010   0.431488   0.446737   0.263852
     2  O    0.431488   8.449632  -0.139783  -0.034163
     3  O    0.446737  -0.139783   8.428415  -0.034221
     4  H    0.263852  -0.034163  -0.034221   0.385123
 Mulliken charges:
               1
     1  C   -0.011088
     2  O   -0.707174
     3  O   -0.701148
     4  H    0.419409
 Sum of Mulliken charges =  -1.00000
 Mulliken charges with hydrogens summed into heavy atoms:
               1
     1  C    0.408322
     2  O   -0.707174
     3  O   -0.701148
 APT charges:
               1
     1  C    1.171143
     2  O   -1.010551
     3  O   -1.001716
     4  H   -0.158877
 Sum of APT charges =  -1.00000
 APT charges with hydrogens summed into heavy atoms:
               1
     1  C    1.012267
     2  O   -1.010551
     3  O   -1.001716
 Electronic spatial extent (au):  <R**2>=            133.1320
 Charge=             -1.0000 electrons
 Dipole moment (field-independent basis, Debye):
    X=             -0.0504    Y=              2.3280    Z=              0.0000  Tot=              2.3285
 Quadrupole moment (field-independent basis, Debye-Ang):
   XX=            -29.4852   YY=            -19.6117   ZZ=            -18.9271
   XY=             -0.2546   XZ=              0.0000   YZ=              0.0000
 Traceless Quadrupole moment (field-independent basis, Debye-Ang):
   XX=             -6.8106   YY=              3.0630   ZZ=              3.7476
   XY=             -0.2546   XZ=              0.0000   YZ=              0.0000
 Octapole moment (field-independent basis, Debye-Ang**2):
  XXX=             -0.0605  YYY=             -0.3565  ZZZ=              0.0000  XYY=             -0.1137
  XXY=              0.7446  XXZ=              0.0000  XZZ=              0.0312  YZZ=             -0.2039
  YYZ=              0.0000  XYZ=              0.0000
 Hexadecapole moment (field-independent basis, Debye-Ang**3):
 XXXX=           -131.8675 YYYY=            -43.8451 ZZZZ=            -19.8647 XXXY=             -0.3518
 XXXZ=              0.0000 YYYX=             -0.5169 YYYZ=              0.0000 ZZZX=              0.0000
 ZZZY=              0.0000 XXYY=            -27.1211 XXZZ=            -23.8979 YYZZ=            -10.5754
 XXYZ=              0.0000 YYXZ=              0.0000 ZZXY=             -0.0433
 N-N= 6.284156548721D+01 E-N=-5.779011585539D+02  KE= 1.879723684666D+02
 Symmetry A'   KE= 1.803566825169D+02
 Symmetry A"   KE= 7.615685949684D+00
  Exact polarizability:  42.041  -0.164  35.064   0.000   0.000  23.266
 Approx polarizability:  26.342  -0.212  23.515   0.000   0.000  18.495
 Calling FoFJK, ICntrl=  10100127 FMM=F ISym2X=1 I1Cent= 0 IOpClX= 0 NMat=1 NMatS=1 NMatT=0.
 ***** Axes restored to original set *****
 -------------------------------------------------------------------
 Center     Atomic                   Forces (Hartrees/Bohr)
 Number     Number              X              Y              Z
 -------------------------------------------------------------------
      1        6           0.032583643    0.000000000    0.028147764
      2        8          -0.028243720    0.000000000    0.014903104
      3        8          -0.014535838    0.000000000   -0.035617307
      4        1           0.010195915    0.000000000   -0.007433561
 -------------------------------------------------------------------
 Cartesian Forces:  Max     0.035617307 RMS     0.019392650
 -----------------------------------------------------------------------------------------------
                       Internal Coordinate Forces (Hartree/Bohr or radian)
  Cent   Atom   N1       Length/X         N2         Alpha/Y        N3         Beta/Z          J
 -----------------------------------------------------------------------------------------------
      1  C 
      2  O        1   0.014903(     1)
      3  O        1   0.005220(     2)      2   0.090625(     4)
      4  H        1  -0.006117(     3)      2   0.023468(     5)      3   0.000000(     6)     0
 -----------------------------------------------------------------------------------------------
 Internal  Forces:  Max     0.090625489 RMS     0.038838324

 GradGradGradGradGradGradGradGradGradGradGradGradGradGradGradGradGradGrad
 Berny optimization.
 Search for a local minimum.
 Step number   1 out of a maximum of   20
 All quantities printed in internal units (Hartrees-Bohrs-Radians)
 Second derivative matrix not updated -- analytic derivatives used.
 The second derivative matrix:
                          R1        R2        A2        A1
           R1           1.48516
           R2           0.05511   0.26795
           A2           0.01865   0.00406   0.26383
           A1           0.16731  -0.03203   0.11294   0.53985
 ITU=  0
     Eigenvalues ---    0.26115   0.26786   1.487941000.00000
 RFO step:  Lambda=-2.48857078D-03 EMin= 2.61149811D-01
 Linear search not attempted -- first point.
 Variable       Old X    -DE/DX   Delta X   Delta X   Delta X     New X
                                 (Linear)    (Quad)   (Total)
    R1        2.37778   0.02012   0.00000   0.01342   0.01342   2.39120
    R2        2.12642  -0.00612   0.00000  -0.02667  -0.02667   2.09975
    A2        2.00555   0.02347   0.00000   0.08759   0.08759   2.09313
    A1        2.09440   0.09063   0.00000   0.00000   0.00000   2.09440
         Item               Value     Threshold  Converged?
 Maximum Force            0.023468     0.000450     NO 
 RMS     Force            0.018194     0.000300     NO 
 Maximum Displacement     0.087586     0.001800     NO 
 RMS     Displacement     0.046267     0.001200     NO 
 Predicted change in Energy=-1.254939D-03
 GradGradGradGradGradGradGradGradGradGradGradGradGradGradGradGradGradGrad

 ---------------------------------------------------------------------------------------------------
                            Z-MATRIX (ANGSTROMS AND DEGREES)
   CD    Cent   Atom    N1       Length/X        N2       Alpha/Y        N3        Beta/Z          J
 ---------------------------------------------------------------------------------------------------
      1      1  C 
      2      2  O        1   1.265369(     1)
      3      3  O        1   1.265369(     2)      2  120.000(     4)
      4      4  H        1   1.111140(     3)      2  119.928(     5)      3  180.000(     6)      0
 ---------------------------------------------------------------------------------------------------
                         Z-Matrix orientation:                         
 ---------------------------------------------------------------------
 Center     Atomic      Atomic             Coordinates (Angstroms)
 Number     Number       Type             X           Y           Z
 ---------------------------------------------------------------------
      1          6           0        0.000000    0.000000    0.000000
      2          8           0        0.000000    0.000000    1.265369
      3          8           0        1.095842    0.000000   -0.632685
      4          1           0       -0.962976    0.000000   -0.554356
 ---------------------------------------------------------------------
                    Distance matrix (angstroms):
                    1          2          3          4
     1  C    0.000000
     2  O    1.265369   0.000000
     3  O    1.265369   2.191684   0.000000
     4  H    1.111140   2.058816   2.060307   0.000000
 Stoichiometry    CHO2(1-)
 Framework group  CS[SG(CHO2)]
 Deg. of freedom     5
 Full point group                 CS      NOp   2
 Largest Abelian subgroup         CS      NOp   2
 Largest concise Abelian subgroup C1      NOp   1
                         Standard orientation:                         
 ---------------------------------------------------------------------
 Center     Atomic      Atomic             Coordinates (Angstroms)
 Number     Number       Type             X           Y           Z
 ---------------------------------------------------------------------
      1          6           0        0.000000    0.391818    0.000000
      2          8           0       -1.095744   -0.241037    0.000000
      3          8           0        1.095941   -0.240696    0.000000
      4          1           0       -0.001575    1.502957    0.000000
 ---------------------------------------------------------------------
 Rotational constants (GHZ):          85.2887811          13.1555586          11.3975223
 Standard basis: Aug-CC-pVTZ (5D, 7F)
 There are   129 symmetry adapted cartesian basis functions of A'  symmetry.
 There are    61 symmetry adapted cartesian basis functions of A"  symmetry.
 There are   106 symmetry adapted basis functions of A'  symmetry.
 There are    55 symmetry adapted basis functions of A"  symmetry.
   161 basis functions,   243 primitive gaussians,   190 cartesian basis functions
    12 alpha electrons       12 beta electrons
       nuclear repulsion energy        62.5683053344 Hartrees.
 NAtoms=    4 NActive=    4 NUniq=    4 SFac= 1.00D+00 NAtFMM=   60 NAOKFM=F Big=F
 Integral buffers will be    131072 words long.
 Raffenetti 1 integral format.
 Two-electron integral symmetry is turned on.
 One-electron integrals computed using PRISM.
 NBasis=   161 RedAO= T EigKep=  9.19D-05  NBF=   106    55
 NBsUse=   161 1.00D-06 EigRej= -1.00D+00 NBFU=   106    55
 Initial guess from the checkpoint file:  "C:\Users\Garrett\Downloads\NanoclusterOutput\Gau-21856.chk"
 B after Tr=     0.000000    0.000000    0.000000
         Rot=    0.999962    0.000000    0.000000    0.008689 Ang=   1.00 deg.
 Initial guess orbital symmetries:
       Occupied  (A') (A') (A') (A') (A') (A') (A') (A') (A") (A')
                 (A') (A")
       Virtual   (A') (A') (A") (A') (A') (A') (A') (A") (A") (A')
                 (A') (A") (A') (A') (A") (A') (A') (A') (A') (A")
                 (A") (A') (A') (A") (A') (A') (A') (A') (A') (A")
                 (A') (A') (A") (A') (A") (A") (A') (A') (A") (A')
                 (A") (A') (A') (A') (A") (A") (A') (A') (A") (A')
                 (A') (A') (A") (A') (A') (A") (A") (A') (A') (A')
                 (A") (A') (A') (A") (A') (A') (A') (A") (A") (A')
                 (A") (A") (A') (A") (A') (A') (A') (A') (A') (A")
                 (A') (A') (A") (A") (A') (A') (A") (A") (A') (A')
                 (A') (A') (A") (A") (A') (A') (A") (A') (A') (A")
                 (A') (A") (A') (A") (A') (A') (A') (A") (A') (A")
                 (A') (A') (A") (A') (A") (A") (A') (A') (A') (A')
                 (A') (A') (A') (A") (A") (A') (A") (A") (A') (A')
                 (A") (A') (A") (A") (A') (A') (A") (A') (A') (A")
                 (A") (A') (A') (A') (A') (A') (A') (A') (A')
 ExpMin= 2.53D-02 ExpMax= 1.53D+04 ExpMxC= 5.22D+02 IAcc=3 IRadAn=         5 AccDes= 0.00D+00
 Harris functional with IExCor=  205 and IRadAn=       5 diagonalized for initial guess.
 HarFok:  IExCor=  205 AccDes= 0.00D+00 IRadAn=         5 IDoV= 1 UseB2=F ITyADJ=14
 ICtDFT=  3500011 ScaDFX=  1.000000  1.000000  1.000000  1.000000
 FoFCou: FMM=F IPFlag=           0 FMFlag=      100000 FMFlg1=           0
         NFxFlg=           0 DoJE=T BraDBF=F KetDBF=T FulRan=T
         wScrn=  0.000000 ICntrl=       500 IOpCl=  0 I1Cent=   200000004 NGrid=           0
         NMat0=    1 NMatS0=      1 NMatT0=    0 NMatD0=    1 NMtDS0=    0 NMtDT0=    0
 Petite list used in FoFCou.
 Keep R1 ints in memory in symmetry-blocked form, NReq=128070129.
 Requested convergence on RMS density matrix=1.00D-08 within 128 cycles.
 Requested convergence on MAX density matrix=1.00D-06.
 Requested convergence on             energy=1.00D-06.
 No special actions if energy rises.
 SCF Done:  E(RHF) =  -188.265247082     A.U. after   11 cycles
            NFock= 11  Conv=0.63D-08     -V/T= 2.0017
 ExpMin= 2.53D-02 ExpMax= 1.53D+04 ExpMxC= 5.22D+02 IAcc=3 IRadAn=         5 AccDes= 0.00D+00
 HarFok:  IExCor=  205 AccDes= 0.00D+00 IRadAn=         5 IDoV=-2 UseB2=F ITyADJ=14
 ICtDFT= 12500011 ScaDFX=  1.000000  1.000000  1.000000  1.000000
 Range of M.O.s used for correlation:     4   161
 NBasis=   161 NAE=    12 NBE=    12 NFC=     3 NFV=     0
 NROrb=    158 NOA=     9 NOB=     9 NVA=   149 NVB=   149

 **** Warning!!: The largest alpha MO coefficient is  0.27718566D+02

 Fully direct method using O(ONN) memory.
 JobTyp=1 Pass  1:  I=   4 to  12 NPSUse=  2 ParTrn=T ParDer=T DoDerP=T.
 Spin components of T(2) and E(2):
     alpha-alpha T2 =       0.2490348216D-01 E2=     -0.8638586543D-01
     alpha-beta  T2 =       0.1305300583D+00 E2=     -0.4865323523D+00
     beta-beta   T2 =       0.2490348216D-01 E2=     -0.8638586543D-01
 ANorm=    0.1086433165D+01
 E2 =    -0.6593040832D+00 EUMP2 =    -0.18892455116559D+03
          IDoAtm=1111
          Differentiating once with respect to electric field.
                with respect to dipole field.
          Differentiating once with respect to nuclear coordinates.
 Keep R1 ints in memory in symmetry-blocked form, NReq=128071153.
          There are     1 degrees of freedom in the 1st order CPHF.  IDoFFX=0 NUNeed=     1.
 LinEq1:  Iter=  0 NonCon=     1 RMS=6.60D-03 Max=1.05D-01 NDo=     1
 AX will form     1 AO Fock derivatives at one time.
 LinEq1:  Iter=  1 NonCon=     1 RMS=1.62D-03 Max=1.82D-02 NDo=     1
 LinEq1:  Iter=  2 NonCon=     1 RMS=5.84D-04 Max=7.05D-03 NDo=     1
 LinEq1:  Iter=  3 NonCon=     1 RMS=2.17D-04 Max=2.45D-03 NDo=     1
 LinEq1:  Iter=  4 NonCon=     1 RMS=6.53D-05 Max=8.39D-04 NDo=     1
 LinEq1:  Iter=  5 NonCon=     1 RMS=1.39D-05 Max=1.50D-04 NDo=     1
 LinEq1:  Iter=  6 NonCon=     1 RMS=2.98D-06 Max=3.70D-05 NDo=     1
 LinEq1:  Iter=  7 NonCon=     1 RMS=5.59D-07 Max=6.08D-06 NDo=     1
 LinEq1:  Iter=  8 NonCon=     1 RMS=9.73D-08 Max=1.54D-06 NDo=     1
 LinEq1:  Iter=  9 NonCon=     1 RMS=1.72D-08 Max=2.36D-07 NDo=     1
 LinEq1:  Iter= 10 NonCon=     1 RMS=2.36D-09 Max=4.53D-08 NDo=     1
 LinEq1:  Iter= 11 NonCon=     1 RMS=3.79D-10 Max=5.14D-09 NDo=     1
 LinEq1:  Iter= 12 NonCon=     1 RMS=1.55D-10 Max=2.60D-09 NDo=     1
 LinEq1:  Iter= 13 NonCon=     0 RMS=4.69D-11 Max=5.34D-10 NDo=     1
 Linear equations converged to 1.000D-10 1.000D-09 after    13 iterations.
 End of Minotr F.D. properties file   721 does not exist.
 End of Minotr F.D. properties file   722 does not exist.
 End of Minotr F.D. properties file   788 does not exist.
 Calling FoFJK, ICntrl=  10002127 FMM=F ISym2X=1 I1Cent= 0 IOpClX= 0 NMat=1 NMatS=1 NMatT=0.
 ***** Axes restored to original set *****
 -------------------------------------------------------------------
 Center     Atomic                   Forces (Hartrees/Bohr)
 Number     Number              X              Y              Z
 -------------------------------------------------------------------
      1        6           0.047965548    0.000000000    0.027817733
      2        8          -0.032038433    0.000000000    0.000687486
      3        8          -0.015611593    0.000000000   -0.028141470
      4        1          -0.000315522    0.000000000   -0.000363749
 -------------------------------------------------------------------
 Cartesian Forces:  Max     0.047965548 RMS     0.020690880
 -----------------------------------------------------------------------------------------------
                       Internal Coordinate Forces (Hartree/Bohr or radian)
  Cent   Atom   N1       Length/X         N2         Alpha/Y        N3         Beta/Z          J
 -----------------------------------------------------------------------------------------------
      1  C 
      2  O        1   0.000687(     1)
      3  O        1   0.000551(     2)      2   0.076942(     4)
      4  H        1   0.000455(     3)      2   0.000331(     5)      3   0.000000(     6)     0
 -----------------------------------------------------------------------------------------------
 Internal  Forces:  Max     0.076941756 RMS     0.031414239

 GradGradGradGradGradGradGradGradGradGradGradGradGradGradGradGradGradGrad
 Berny optimization.
 Search for a local minimum.
 Step number   2 out of a maximum of   20
 All quantities printed in internal units (Hartrees-Bohrs-Radians)
 Update second derivatives using D2CorN and points    1    2
 DE= -1.26D-03 DEPred=-1.25D-03 R= 1.00D+00
 TightC=F SS=  1.41D+00  RLast= 9.25D-02 DXNew= 5.0454D-01 2.7760D-01
 Trust test= 1.00D+00 RLast= 9.25D-02 DXMaxT set to 3.00D-01
 The second derivative matrix:
                          R1        R2        A2        A1
           R1           1.48327
           R2           0.05658   0.26958
           A2           0.01240   0.00157   0.26267
           A1           0.16785  -0.03311   0.11648   0.53985
 ITU=  1  0
     Eigenvalues ---    0.26233   0.26716   1.486031000.00000
 RFO step:  Lambda=-1.60867287D-06 EMin= 2.62332663D-01
 Quartic linear search produced a step of  0.01372.
 Variable       Old X    -DE/DX   Delta X   Delta X   Delta X     New X
                                 (Linear)    (Quad)   (Total)
    R1        2.39120   0.00124   0.00018   0.00059   0.00077   2.39197
    R2        2.09975   0.00045  -0.00037   0.00190   0.00153   2.10128
    A2        2.09313   0.00033   0.00120   0.00002   0.00122   2.09436
    A1        2.09440   0.07694   0.00000   0.00000   0.00000   2.09440
         Item               Value     Threshold  Converged?
 Maximum Force            0.001238     0.000450     NO 
 RMS     Force            0.000785     0.000300     NO 
 Maximum Displacement     0.001531     0.001800     YES
 RMS     Displacement     0.001053     0.001200     YES
 Predicted change in Energy=-1.021775D-06
 GradGradGradGradGradGradGradGradGradGradGradGradGradGradGradGradGradGrad

 ---------------------------------------------------------------------------------------------------
                            Z-MATRIX (ANGSTROMS AND DEGREES)
   CD    Cent   Atom    N1       Length/X        N2       Alpha/Y        N3        Beta/Z          J
 ---------------------------------------------------------------------------------------------------
      1      1  C 
      2      2  O        1   1.265778(     1)
      3      3  O        1   1.265778(     2)      2  120.000(     4)
      4      4  H        1   1.111950(     3)      2  119.998(     5)      3  180.000(     6)      0
 ---------------------------------------------------------------------------------------------------
                         Z-Matrix orientation:                         
 ---------------------------------------------------------------------
 Center     Atomic      Atomic             Coordinates (Angstroms)
 Number     Number       Type             X           Y           Z
 ---------------------------------------------------------------------
      1          6           0        0.000000    0.000000    0.000000
      2          8           0        0.000000    0.000000    1.265778
      3          8           0        1.096196    0.000000   -0.632889
      4          1           0       -0.962999    0.000000   -0.555938
 ---------------------------------------------------------------------
                    Distance matrix (angstroms):
                    1          2          3          4
     1  C    0.000000
     2  O    1.265778   0.000000
     3  O    1.265778   2.192392   0.000000
     4  H    1.111950   2.060586   2.060632   0.000000
 Stoichiometry    CHO2(1-)
 Framework group  CS[SG(CHO2)]
 Deg. of freedom     5
 Full point group                 CS      NOp   2
 Largest Abelian subgroup         CS      NOp   2
 Largest concise Abelian subgroup C1      NOp   1
                         Standard orientation:                         
 ---------------------------------------------------------------------
 Center     Atomic      Atomic             Coordinates (Angstroms)
 Number     Number       Type             X           Y           Z
 ---------------------------------------------------------------------
      1          6           0        0.000000    0.391925    0.000000
      2          8           0       -1.096193   -0.240969    0.000000
      3          8           0        1.096199   -0.240959    0.000000
      4          1           0       -0.000049    1.503875    0.000000
 ---------------------------------------------------------------------
 Rotational constants (GHZ):          85.2136165          13.1470707          11.3898090
 Standard basis: Aug-CC-pVTZ (5D, 7F)
 There are   129 symmetry adapted cartesian basis functions of A'  symmetry.
 There are    61 symmetry adapted cartesian basis functions of A"  symmetry.
 There are   106 symmetry adapted basis functions of A'  symmetry.
 There are    55 symmetry adapted basis functions of A"  symmetry.
   161 basis functions,   243 primitive gaussians,   190 cartesian basis functions
    12 alpha electrons       12 beta electrons
       nuclear repulsion energy        62.5461930948 Hartrees.
 NAtoms=    4 NActive=    4 NUniq=    4 SFac= 1.00D+00 NAtFMM=   60 NAOKFM=F Big=F
 Integral buffers will be    131072 words long.
 Raffenetti 1 integral format.
 Two-electron integral symmetry is turned on.
 One-electron integrals computed using PRISM.
 NBasis=   161 RedAO= T EigKep=  9.21D-05  NBF=   106    55
 NBsUse=   161 1.00D-06 EigRej= -1.00D+00 NBFU=   106    55
 Initial guess from the checkpoint file:  "C:\Users\Garrett\Downloads\NanoclusterOutput\Gau-21856.chk"
 B after Tr=     0.000000    0.000000    0.000000
         Rot=    1.000000    0.000000    0.000000    0.000119 Ang=   0.01 deg.
 Initial guess orbital symmetries:
       Occupied  (A') (A') (A') (A') (A') (A') (A') (A') (A") (A')
                 (A') (A")
       Virtual   (A') (A') (A") (A') (A') (A') (A') (A") (A") (A')
                 (A') (A") (A') (A') (A") (A') (A') (A') (A') (A")
                 (A") (A') (A') (A") (A') (A') (A') (A') (A') (A")
                 (A') (A') (A") (A') (A") (A") (A') (A') (A") (A')
                 (A") (A') (A') (A') (A") (A") (A') (A') (A') (A")
                 (A') (A') (A") (A') (A') (A") (A") (A') (A') (A')
                 (A") (A') (A') (A") (A') (A') (A') (A") (A") (A')
                 (A") (A") (A') (A") (A') (A') (A') (A') (A') (A")
                 (A') (A') (A") (A") (A') (A') (A") (A") (A') (A')
                 (A') (A') (A") (A") (A') (A') (A") (A') (A") (A')
                 (A") (A') (A') (A') (A") (A') (A') (A") (A') (A")
                 (A') (A") (A') (A') (A") (A') (A") (A') (A') (A')
                 (A') (A') (A') (A") (A") (A') (A") (A") (A') (A')
                 (A") (A') (A") (A") (A') (A') (A') (A") (A') (A")
                 (A") (A') (A') (A') (A') (A') (A') (A') (A')
 Keep R1 ints in memory in symmetry-blocked form, NReq=128070129.
 Requested convergence on RMS density matrix=1.00D-08 within 128 cycles.
 Requested convergence on MAX density matrix=1.00D-06.
 Requested convergence on             energy=1.00D-06.
 No special actions if energy rises.
 SCF Done:  E(RHF) =  -188.265167046     A.U. after    8 cycles
            NFock=  8  Conv=0.67D-08     -V/T= 2.0017
 ExpMin= 2.53D-02 ExpMax= 1.53D+04 ExpMxC= 5.22D+02 IAcc=3 IRadAn=         5 AccDes= 0.00D+00
 HarFok:  IExCor=  205 AccDes= 0.00D+00 IRadAn=         5 IDoV=-2 UseB2=F ITyADJ=14
 ICtDFT= 12500011 ScaDFX=  1.000000  1.000000  1.000000  1.000000
 Range of M.O.s used for correlation:     4   161
 NBasis=   161 NAE=    12 NBE=    12 NFC=     3 NFV=     0
 NROrb=    158 NOA=     9 NOB=     9 NVA=   149 NVB=   149

 **** Warning!!: The largest alpha MO coefficient is  0.27726449D+02

 Fully direct method using O(ONN) memory.
 JobTyp=1 Pass  1:  I=   4 to  12 NPSUse=  2 ParTrn=T ParDer=T DoDerP=T.
 Spin components of T(2) and E(2):
     alpha-alpha T2 =       0.2491509516D-01 E2=     -0.8639600977D-01
     alpha-beta  T2 =       0.1305940231D+00 E2=     -0.4865931098D+00
     beta-beta   T2 =       0.2491509516D-01 E2=     -0.8639600977D-01
 ANorm=    0.1086473292D+01
 E2 =    -0.6593851294D+00 EUMP2 =    -0.18892455217491D+03
          IDoAtm=1111
          Differentiating once with respect to electric field.
                with respect to dipole field.
          Differentiating once with respect to nuclear coordinates.
 Keep R1 ints in memory in symmetry-blocked form, NReq=128071153.
          There are     1 degrees of freedom in the 1st order CPHF.  IDoFFX=0 NUNeed=     1.
 LinEq1:  Iter=  0 NonCon=     1 RMS=6.61D-03 Max=1.05D-01 NDo=     1
 AX will form     1 AO Fock derivatives at one time.
 LinEq1:  Iter=  1 NonCon=     1 RMS=1.62D-03 Max=1.82D-02 NDo=     1
 LinEq1:  Iter=  2 NonCon=     1 RMS=5.85D-04 Max=7.07D-03 NDo=     1
 LinEq1:  Iter=  3 NonCon=     1 RMS=2.18D-04 Max=2.46D-03 NDo=     1
 LinEq1:  Iter=  4 NonCon=     1 RMS=6.55D-05 Max=8.42D-04 NDo=     1
 LinEq1:  Iter=  5 NonCon=     1 RMS=1.39D-05 Max=1.51D-04 NDo=     1
 LinEq1:  Iter=  6 NonCon=     1 RMS=2.99D-06 Max=3.71D-05 NDo=     1
 LinEq1:  Iter=  7 NonCon=     1 RMS=5.61D-07 Max=6.16D-06 NDo=     1
 LinEq1:  Iter=  8 NonCon=     1 RMS=9.76D-08 Max=1.54D-06 NDo=     1
 LinEq1:  Iter=  9 NonCon=     1 RMS=1.73D-08 Max=2.36D-07 NDo=     1
 LinEq1:  Iter= 10 NonCon=     1 RMS=2.37D-09 Max=4.54D-08 NDo=     1
 LinEq1:  Iter= 11 NonCon=     1 RMS=3.58D-10 Max=5.03D-09 NDo=     1
 LinEq1:  Iter= 12 NonCon=     1 RMS=7.44D-11 Max=1.05D-09 NDo=     1
 LinEq1:  Iter= 13 NonCon=     0 RMS=3.97D-11 Max=4.08D-10 NDo=     1
 Linear equations converged to 1.000D-10 1.000D-09 after    13 iterations.
 End of Minotr F.D. properties file   721 does not exist.
 End of Minotr F.D. properties file   722 does not exist.
 End of Minotr F.D. properties file   788 does not exist.
 Calling FoFJK, ICntrl=  10002127 FMM=F ISym2X=1 I1Cent= 0 IOpClX= 0 NMat=1 NMatS=1 NMatT=0.
 ***** Axes restored to original set *****
 -------------------------------------------------------------------
 Center     Atomic                   Forces (Hartrees/Bohr)
 Number     Number              X              Y              Z
 -------------------------------------------------------------------
      1        6           0.048047109    0.000000000    0.027743944
      2        8          -0.032067273    0.000000000    0.000033220
      3        8          -0.016010589    0.000000000   -0.027789313
      4        1           0.000030754    0.000000000    0.000012149
 -------------------------------------------------------------------
 Cartesian Forces:  Max     0.048047109 RMS     0.020686445
 -----------------------------------------------------------------------------------------------
                       Internal Coordinate Forces (Hartree/Bohr or radian)
  Cent   Atom   N1       Length/X         N2         Alpha/Y        N3         Beta/Z          J
 -----------------------------------------------------------------------------------------------
      1  C 
      2  O        1   0.000033(     1)
      3  O        1   0.000029(     2)      2   0.076714(     4)
      4  H        1  -0.000033(     3)      2   0.000010(     5)      3   0.000000(     6)     0
 -----------------------------------------------------------------------------------------------
 Internal  Forces:  Max     0.076714290 RMS     0.031318486

 GradGradGradGradGradGradGradGradGradGradGradGradGradGradGradGradGradGrad
 Berny optimization.
 Search for a local minimum.
 Step number   3 out of a maximum of   20
 All quantities printed in internal units (Hartrees-Bohrs-Radians)
 Update second derivatives using D2CorN and points    1    2    3
 DE= -1.01D-06 DEPred=-1.02D-06 R= 9.88D-01
 TightC=F SS=  1.41D+00  RLast= 2.11D-03 DXNew= 5.0454D-01 6.3168D-03
 Trust test= 9.88D-01 RLast= 2.11D-03 DXMaxT set to 3.00D-01
 The second derivative matrix:
                          R1        R2        A2        A1
           R1           1.47055
           R2           0.04833   0.28041
           A2          -0.00085   0.00308   0.26059
           A1           0.16853  -0.03283   0.11890   0.53985
 ITU=  1  1  0
     Eigenvalues ---    0.26006   0.27898   1.472511000.00000
 RFO step:  Lambda= 0.00000000D+00 EMin= 2.60061838D-01
 Quartic linear search produced a step of  0.00552.
 Variable       Old X    -DE/DX   Delta X   Delta X   Delta X     New X
                                 (Linear)    (Quad)   (Total)
    R1        2.39197   0.00006   0.00000   0.00004   0.00005   2.39202
    R2        2.10128  -0.00003   0.00001  -0.00013  -0.00012   2.10116
    A2        2.09436   0.00001   0.00001   0.00003   0.00004   2.09440
    A1        2.09440   0.07671   0.00000   0.00000   0.00000   2.09440
         Item               Value     Threshold  Converged?
 Maximum Force            0.000062     0.000450     YES
 RMS     Force            0.000041     0.000300     YES
 Maximum Displacement     0.000124     0.001800     YES
 RMS     Displacement     0.000070     0.001200     YES
 Predicted change in Energy=-3.702279D-09
 Optimization completed.
    -- Stationary point found.
                       ----------------------------
                       !   Optimized Parameters   !
                       ! (Angstroms and Degrees)  !
 ----------------------                            ----------------------
 !      Name          Value   Derivative information (Atomic Units)     !
 ------------------------------------------------------------------------
 !       R1          1.2658   -DE/DX =    0.0001                        !
 !       R2          1.112    -DE/DX =    0.0                           !
 !       A2        119.9978   -DE/DX =    0.0                           !
 !       A1        120.0      -DE/DX =    0.0767                        !
 ------------------------------------------------------------------------
 GradGradGradGradGradGradGradGradGradGradGradGradGradGradGradGradGradGrad

 ---------------------------------------------------------------------------------------------------
                            Z-MATRIX (ANGSTROMS AND DEGREES)
   CD    Cent   Atom    N1       Length/X        N2       Alpha/Y        N3        Beta/Z          J
 ---------------------------------------------------------------------------------------------------
      1      1  C 
      2      2  O        1   1.265778(     1)
      3      3  O        1   1.265778(     2)      2  120.000(     4)
      4      4  H        1   1.111950(     3)      2  119.998(     5)      3  180.000(     6)      0
 ---------------------------------------------------------------------------------------------------
                         Z-Matrix orientation:                         
 ---------------------------------------------------------------------
 Center     Atomic      Atomic             Coordinates (Angstroms)
 Number     Number       Type             X           Y           Z
 ---------------------------------------------------------------------
      1          6           0        0.000000    0.000000    0.000000
      2          8           0        0.000000    0.000000    1.265778
      3          8           0        1.096196    0.000000   -0.632889
      4          1           0       -0.962999    0.000000   -0.555938
 ---------------------------------------------------------------------
                    Distance matrix (angstroms):
                    1          2          3          4
     1  C    0.000000
     2  O    1.265778   0.000000
     3  O    1.265778   2.192392   0.000000
     4  H    1.111950   2.060586   2.060632   0.000000
 Stoichiometry    CHO2(1-)
 Framework group  CS[SG(CHO2)]
 Deg. of freedom     5
 Full point group                 CS      NOp   2
 Largest Abelian subgroup         CS      NOp   2
 Largest concise Abelian subgroup C1      NOp   1
                         Standard orientation:                         
 ---------------------------------------------------------------------
 Center     Atomic      Atomic             Coordinates (Angstroms)
 Number     Number       Type             X           Y           Z
 ---------------------------------------------------------------------
      1          6           0        0.000000    0.391925    0.000000
      2          8           0       -1.096193   -0.240969    0.000000
      3          8           0        1.096199   -0.240959    0.000000
      4          1           0       -0.000049    1.503875    0.000000
 ---------------------------------------------------------------------
 Rotational constants (GHZ):          85.2136165          13.1470707          11.3898090

 **********************************************************************

            Population analysis using the SCF Density.

 **********************************************************************

 Orbital symmetries:
       Occupied  (A') (A') (A') (A') (A') (A') (A') (A') (A") (A')
                 (A') (A")
       Virtual   (A') (A') (A") (A') (A') (A') (A') (A") (A") (A')
                 (A') (A") (A') (A') (A") (A') (A') (A') (A') (A")
                 (A") (A') (A') (A") (A') (A') (A') (A') (A') (A")
                 (A') (A') (A") (A') (A") (A") (A') (A') (A") (A')
                 (A") (A') (A') (A') (A") (A") (A') (A') (A') (A")
                 (A') (A') (A") (A') (A') (A") (A") (A') (A') (A')
                 (A") (A') (A') (A") (A') (A') (A') (A") (A") (A')
                 (A") (A") (A') (A") (A') (A') (A') (A') (A') (A")
                 (A') (A') (A") (A") (A') (A') (A") (A") (A') (A')
                 (A') (A') (A") (A") (A') (A') (A") (A') (A") (A')
                 (A') (A") (A') (A') (A") (A') (A') (A") (A') (A")
                 (A') (A") (A') (A') (A") (A') (A") (A') (A') (A')
                 (A') (A') (A') (A") (A") (A') (A") (A") (A') (A')
                 (A") (A') (A") (A") (A') (A') (A') (A") (A') (A")
                 (A") (A') (A') (A') (A') (A') (A') (A') (A')
 The electronic state is 1-A'.
 Alpha  occ. eigenvalues --  -20.28074 -20.28071 -11.12308  -1.15052  -1.03732
 Alpha  occ. eigenvalues --   -0.56794  -0.42605  -0.37303  -0.33235  -0.20313
 Alpha  occ. eigenvalues --   -0.18858  -0.17408
 Alpha virt. eigenvalues --    0.14118   0.21196   0.21318   0.21869   0.27778
 Alpha virt. eigenvalues --    0.31827   0.33145   0.34606   0.35551   0.36230
 Alpha virt. eigenvalues --    0.40046   0.41504   0.42033   0.44948   0.48777
 Alpha virt. eigenvalues --    0.50439   0.51118   0.54376   0.57261   0.60250
 Alpha virt. eigenvalues --    0.61363   0.69339   0.69426   0.72618   0.77941
 Alpha virt. eigenvalues --    0.80507   0.90570   0.90948   0.92962   0.98357
 Alpha virt. eigenvalues --    0.98407   1.03343   1.03902   1.07227   1.09051
 Alpha virt. eigenvalues --    1.09830   1.11349   1.11801   1.12458   1.14132
 Alpha virt. eigenvalues --    1.19398   1.20519   1.23288   1.24517   1.28770
 Alpha virt. eigenvalues --    1.29517   1.31804   1.40535   1.44434   1.44828
 Alpha virt. eigenvalues --    1.45055   1.55461   1.57967   1.61199   1.65115
 Alpha virt. eigenvalues --    1.70826   1.73462   1.78752   1.80129   1.90329
 Alpha virt. eigenvalues --    1.90674   1.96848   2.08739   2.12100   2.23216
 Alpha virt. eigenvalues --    2.33879   2.40616   2.45267   2.45599   2.48979
 Alpha virt. eigenvalues --    2.57952   2.62319   2.65084   2.65481   2.66124
 Alpha virt. eigenvalues --    2.66743   2.70872   2.74850   2.77681   2.80807
 Alpha virt. eigenvalues --    2.86365   2.86961   2.91480   2.92654   2.99832
 Alpha virt. eigenvalues --    3.06744   3.12082   3.13394   3.17630   3.26436
 Alpha virt. eigenvalues --    3.32253   3.39401   3.44193   3.57027   3.59708
 Alpha virt. eigenvalues --    3.75642   3.77053   3.80987   4.09362   4.10689
 Alpha virt. eigenvalues --    4.21917   4.21983   4.29753   4.30977   4.31365
 Alpha virt. eigenvalues --    4.43564   4.44870   4.53519   4.69240   4.87619
 Alpha virt. eigenvalues --    4.89469   5.22728   5.23347   5.24765   5.30528
 Alpha virt. eigenvalues --    5.38237   5.38960   5.48510   5.81879   6.17193
 Alpha virt. eigenvalues --    6.49691   6.57445   6.85449   6.86408   6.88004
 Alpha virt. eigenvalues --    6.88392   7.07948   7.10845   7.13523   7.16407
 Alpha virt. eigenvalues --    7.26284   7.30524   7.39514   7.42164   7.46041
 Alpha virt. eigenvalues --    7.51430   7.56427   7.56917   7.67431   7.81044
 Alpha virt. eigenvalues --    7.81473   7.88561   7.94447   8.02908   8.16478
 Alpha virt. eigenvalues --    8.21616  13.47168  15.04477  16.45818
          Condensed to atoms (all electrons):
               1          2          3          4
     1  C    4.885606   0.437542   0.437549   0.256669
     2  O    0.437542   8.438242  -0.135043  -0.031795
     3  O    0.437549  -0.135043   8.438234  -0.031795
     4  H    0.256669  -0.031795  -0.031795   0.371663
 Mulliken charges:
               1
     1  C   -0.017367
     2  O   -0.708947
     3  O   -0.708945
     4  H    0.435258
 Sum of Mulliken charges =  -1.00000
 Mulliken charges with hydrogens summed into heavy atoms:
               1
     1  C    0.417892
     2  O   -0.708947
     3  O   -0.708945
 Electronic spatial extent (au):  <R**2>=            133.9608
 Charge=             -1.0000 electrons
 Dipole moment (field-independent basis, Debye):
    X=              0.0000    Y=              2.3964    Z=              0.0000  Tot=              2.3964
 Quadrupole moment (field-independent basis, Debye-Ang):
   XX=            -29.6318   YY=            -19.5019   ZZ=            -18.9481
   XY=             -0.0001   XZ=              0.0000   YZ=              0.0000
 Traceless Quadrupole moment (field-independent basis, Debye-Ang):
   XX=             -6.9379   YY=              3.1921   ZZ=              3.7458
   XY=             -0.0001   XZ=              0.0000   YZ=              0.0000
 Octapole moment (field-independent basis, Debye-Ang**2):
  XXX=              0.0000  YYY=             -0.0038  ZZZ=              0.0000  XYY=             -0.0001
  XXY=              0.7633  XXZ=              0.0000  XZZ=              0.0000  YZZ=             -0.1451
  YYZ=              0.0000  XYZ=              0.0000
 Hexadecapole moment (field-independent basis, Debye-Ang**3):
 XXXX=           -133.4204 YYYY=            -43.0112 ZZZZ=            -19.9293 XXXY=             -0.0002
 XXXZ=              0.0000 YYYX=             -0.0002 YYYZ=              0.0000 ZZZX=              0.0000
 ZZZY=              0.0000 XXYY=            -27.3103 XXZZ=            -24.1466 YYZZ=            -10.4902
 XXYZ=              0.0000 YYXZ=              0.0000 ZZXY=              0.0000
 N-N= 6.254619309485D+01 E-N=-5.772840742260D+02  KE= 1.879364453568D+02
 Symmetry A'   KE= 1.803328307359D+02
 Symmetry A"   KE= 7.603614620908D+00
 1|1|UNPC-DESKTOP-F4NP0R6|POpt|RMP2-FC|Aug-CC-pVTZ|C1H1O2(1-)|GARRETT|2
 4-Jul-2018|1||# MP2 Aug-cc-pvTZ opt=(noeigen,calcfc,z-matrix)||Formate
 ||-1,1|C|O,1,R1|O,1,R1,2,A1|H,1,R2,2,A2,3,180.,0||R1=1.2657779|R2=1.11
 195015|A2=119.99776543|A1=120.||Version=EM64W-G16RevB.01|State=1-A'|HF
 =-188.265167|MP2=-188.9245522|RMSD=6.661e-009|RMSF=2.069e-002|Dipole=-
 0.6317187,0.,-0.3647187|PG=CS [SG(C1H1O2)]||@


 Spring appears, and we are once more children.
                                  -- Anonymous
 Job cpu time:       0 days  0 hours 44 minutes 24.0 seconds.
 Elapsed time:       0 days  0 hours 44 minutes  3.1 seconds.
 File lengths (MBytes):  RWF=   2790 Int=      0 D2E=      0 Chk=      4 Scr=      1
 Normal termination of Gaussian 16 at Tue Jul 24 08:03:33 2018.
