 Entering Link 1 = C:\G16W\l1.exe PID=     15572.
  
 Copyright (c) 1988-2017, Gaussian, Inc.  All Rights Reserved.
  
 This is part of the Gaussian(R) 16 program.  It is based on
 the Gaussian(R) 09 system (copyright 2009, Gaussian, Inc.),
 the Gaussian(R) 03 system (copyright 2003, Gaussian, Inc.),
 the Gaussian(R) 98 system (copyright 1998, Gaussian, Inc.),
 the Gaussian(R) 94 system (copyright 1995, Gaussian, Inc.),
 the Gaussian 92(TM) system (copyright 1992, Gaussian, Inc.),
 the Gaussian 90(TM) system (copyright 1990, Gaussian, Inc.),
 the Gaussian 88(TM) system (copyright 1988, Gaussian, Inc.),
 the Gaussian 86(TM) system (copyright 1986, Carnegie Mellon
 University), and the Gaussian 82(TM) system (copyright 1983,
 Carnegie Mellon University). Gaussian is a federally registered
 trademark of Gaussian, Inc.
  
 This software contains proprietary and confidential information,
 including trade secrets, belonging to Gaussian, Inc.
  
 This software is provided under written license and may be
 used, copied, transmitted, or stored only in accord with that
 written license.
  
 The following legend is applicable only to US Government
 contracts under FAR:
  
                    RESTRICTED RIGHTS LEGEND
  
 Use, reproduction and disclosure by the US Government is
 subject to restrictions as set forth in subparagraphs (a)
 and (c) of the Commercial Computer Software - Restricted
 Rights clause in FAR 52.227-19.
  
 Gaussian, Inc.
 340 Quinnipiac St., Bldg. 40, Wallingford CT 06492
  
  
 ---------------------------------------------------------------
 Warning -- This program may not be used in any manner that
 competes with the business of Gaussian, Inc. or will provide
 assistance to any competitor of Gaussian, Inc.  The licensee
 of this program is prohibited from giving any competitor of
 Gaussian, Inc. access to this program.  By using this program,
 the user acknowledges that Gaussian, Inc. is engaged in the
 business of creating and licensing software in the field of
 computational chemistry and represents and warrants to the
 licensee that it is not a competitor of Gaussian, Inc. and that
 it will not use this program in any manner prohibited above.
 ---------------------------------------------------------------
  

 Cite this work as:
 Gaussian 16, Revision B.01,
 M. J. Frisch, G. W. Trucks, H. B. Schlegel, G. E. Scuseria, 
 M. A. Robb, J. R. Cheeseman, G. Scalmani, V. Barone, 
 G. A. Petersson, H. Nakatsuji, X. Li, M. Caricato, A. V. Marenich, 
 J. Bloino, B. G. Janesko, R. Gomperts, B. Mennucci, H. P. Hratchian, 
 J. V. Ortiz, A. F. Izmaylov, J. L. Sonnenberg, D. Williams-Young, 
 F. Ding, F. Lipparini, F. Egidi, J. Goings, B. Peng, A. Petrone, 
 T. Henderson, D. Ranasinghe, V. G. Zakrzewski, J. Gao, N. Rega, 
 G. Zheng, W. Liang, M. Hada, M. Ehara, K. Toyota, R. Fukuda, 
 J. Hasegawa, M. Ishida, T. Nakajima, Y. Honda, O. Kitao, H. Nakai, 
 T. Vreven, K. Throssell, J. A. Montgomery, Jr., J. E. Peralta, 
 F. Ogliaro, M. J. Bearpark, J. J. Heyd, E. N. Brothers, K. N. Kudin, 
 V. N. Staroverov, T. A. Keith, R. Kobayashi, J. Normand, 
 K. Raghavachari, A. P. Rendell, J. C. Burant, S. S. Iyengar, 
 J. Tomasi, M. Cossi, J. M. Millam, M. Klene, C. Adamo, R. Cammi, 
 J. W. Ochterski, R. L. Martin, K. Morokuma, O. Farkas, 
 J. B. Foresman, and D. J. Fox, Gaussian, Inc., Wallingford CT, 2016.
 
 ******************************************
 Gaussian 16:  EM64W-G16RevB.01 16-Dec-2017
                23-Jul-2018 
 ******************************************
 %nproc=2
 Will use up to    2 processors via shared memory.
 %mem=4gb
 -----------------------------------------------
 # MP2 Aug-cc-pvTZ opt=(noeigen,calcfc,z-matrix)
 -----------------------------------------------
 1/10=4,11=1,18=40,38=1/1,3;
 2/12=2,17=6,18=5,29=3,40=1/2;
 3/5=16,6=1,7=10,11=9,25=1,30=1,71=2,140=1/1,2,3;
 4//1;
 5/5=2,38=5/2;
 8/6=3,8=1,10=1,19=11,30=-1/1;
 9/15=3,16=-3/6;
 11/6=1,8=1,15=11,17=12,24=-1,27=1,28=-2,29=300,32=6,42=3/1,2,10;
 10/6=2,21=1/2;
 8/6=4,8=1,10=1,19=11,30=-1/11,4;
 10/5=1,20=4/2;
 11/12=2,14=11,16=1,17=2,28=-2,42=3,76=2/2,10,12;
 6/7=2,8=2,9=2,10=2/1;
 7/10=1,12=2,25=1,44=2/1,2,3,16;
 1/10=4,11=1,18=40/3(2);
 2/29=3/2;
 99//99;
 2/29=3/2;
 3/5=16,6=1,7=10,11=9,25=1,30=1,71=1/1,2,3;
 4/5=5,16=3,69=1/1;
 5/5=2,38=5/2;
 8/6=4,10=1/1;
 9/15=2,16=-3/6;
 10/5=1/2;
 7/12=2/1,2,3,16;
 1/11=1,18=40/3(-8);
 2/29=3/2;
 6/7=2,8=2,9=2,10=2/1;
 99/9=10/99;
 -------
 Formate
 -------
 Symbolic Z-matrix:
 Charge = -1 Multiplicity = 1
 C
 O                    1    R1
 O                    1    R1       2    A1
 H                    1    R2       2    A2       3     180.     0
       Variables:
  R1                    1.25827                  
  R2                    1.12525                  
  A1                  130.18115                  
       Constants:
  A2                  122.5                      
 

 GradGradGradGradGradGradGradGradGradGradGradGradGradGradGradGradGradGrad
 Berny optimization.
 Initialization pass.
                       ----------------------------
                       !    Initial Parameters    !
                       ! (Angstroms and Degrees)  !
 ----------------------                            ----------------------
 !      Name          Value   Derivative information (Atomic Units)     !
 ------------------------------------------------------------------------
 !       R1          1.2583   calculate D2E/DX2 analytically            !
 !       R2          1.1253   calculate D2E/DX2 analytically            !
 !       A1        130.1811   calculate D2E/DX2 analytically            !
 !       A2        122.5      frozen, calculate D2E/DX2 analytically    !
 ------------------------------------------------------------------------
 Trust Radius=3.00D-01 FncErr=1.00D-07 GrdErr=1.00D-07 EigMax=2.50D+02 EigMin=1.00D-04
 Number of steps in this run=     20 maximum allowed number of steps=    100.
 GradGradGradGradGradGradGradGradGradGradGradGradGradGradGradGradGradGrad

 ---------------------------------------------------------------------------------------------------
                            Z-MATRIX (ANGSTROMS AND DEGREES)
   CD    Cent   Atom    N1       Length/X        N2       Alpha/Y        N3        Beta/Z          J
 ---------------------------------------------------------------------------------------------------
      1      1  C 
      2      2  O        1   1.258269(     1)
      3      3  O        1   1.258269(     2)      2  130.181(     4)
      4      4  H        1   1.125251(     3)      2  122.500(     5)      3  180.000(     6)      0
 ---------------------------------------------------------------------------------------------------
                         Z-Matrix orientation:                         
 ---------------------------------------------------------------------
 Center     Atomic      Atomic             Coordinates (Angstroms)
 Number     Number       Type             X           Y           Z
 ---------------------------------------------------------------------
      1          6           0        0.000000    0.000000    0.000000
      2          8           0        0.000000    0.000000    1.258269
      3          8           0        0.961328    0.000000   -0.811843
      4          1           0       -0.949027    0.000000   -0.604597
 ---------------------------------------------------------------------
                    Distance matrix (angstroms):
                    1          2          3          4
     1  C    0.000000
     2  O    1.258269   0.000000
     3  O    1.258269   2.282437   0.000000
     4  H    1.125251   2.090676   1.921564   0.000000
 Stoichiometry    CHO2(1-)
 Framework group  CS[SG(CHO2)]
 Deg. of freedom     5
 Full point group                 CS      NOp   2
 Largest Abelian subgroup         CS      NOp   2
 Largest concise Abelian subgroup C1      NOp   1
                         Standard orientation:                         
 ---------------------------------------------------------------------
 Center     Atomic      Atomic             Coordinates (Angstroms)
 Number     Number       Type             X           Y           Z
 ---------------------------------------------------------------------
      1          6           0        0.000000    0.320241    0.000000
      2          8           0        1.151681   -0.186586    0.000000
      3          8           0       -1.130291   -0.232646    0.000000
      4          1           0       -0.171117    1.432405    0.000000
 ---------------------------------------------------------------------
 Rotational constants (GHZ):         108.2463637          12.1234752          10.9024164
 Standard basis: Aug-CC-pVTZ (5D, 7F)
 There are   129 symmetry adapted cartesian basis functions of A'  symmetry.
 There are    61 symmetry adapted cartesian basis functions of A"  symmetry.
 There are   106 symmetry adapted basis functions of A'  symmetry.
 There are    55 symmetry adapted basis functions of A"  symmetry.
   161 basis functions,   243 primitive gaussians,   190 cartesian basis functions
    12 alpha electrons       12 beta electrons
       nuclear repulsion energy        62.2616118359 Hartrees.
 NAtoms=    4 NActive=    4 NUniq=    4 SFac= 1.00D+00 NAtFMM=   60 NAOKFM=F Big=F
 Integral buffers will be    131072 words long.
 Raffenetti 1 integral format.
 Two-electron integral symmetry is turned on.
 One-electron integrals computed using PRISM.
 NBasis=   161 RedAO= T EigKep=  9.73D-05  NBF=   106    55
 NBsUse=   161 1.00D-06 EigRej= -1.00D+00 NBFU=   106    55
 ExpMin= 2.53D-02 ExpMax= 1.53D+04 ExpMxC= 5.22D+02 IAcc=3 IRadAn=         5 AccDes= 0.00D+00
 Harris functional with IExCor=  205 and IRadAn=       5 diagonalized for initial guess.
 HarFok:  IExCor=  205 AccDes= 0.00D+00 IRadAn=         5 IDoV= 1 UseB2=F ITyADJ=14
 ICtDFT=  3500011 ScaDFX=  1.000000  1.000000  1.000000  1.000000
 FoFCou: FMM=F IPFlag=           0 FMFlag=      100000 FMFlg1=           0
         NFxFlg=           0 DoJE=T BraDBF=F KetDBF=T FulRan=T
         wScrn=  0.000000 ICntrl=       500 IOpCl=  0 I1Cent=   200000004 NGrid=           0
         NMat0=    1 NMatS0=      1 NMatT0=    0 NMatD0=    1 NMtDS0=    0 NMtDT0=    0
 Petite list used in FoFCou.
 Initial guess orbital symmetries:
       Occupied  (A') (A') (A') (A') (A') (A') (A') (A') (A") (A")
                 (A') (A')
       Virtual   (A") (A') (A') (A') (A") (A') (A') (A') (A') (A")
                 (A") (A') (A') (A') (A") (A') (A') (A') (A") (A')
                 (A') (A") (A') (A') (A") (A') (A') (A') (A') (A")
                 (A') (A') (A") (A") (A') (A") (A") (A') (A') (A')
                 (A') (A') (A") (A") (A') (A") (A') (A') (A') (A")
                 (A') (A') (A") (A') (A') (A") (A") (A') (A') (A")
                 (A') (A') (A') (A") (A') (A') (A') (A") (A') (A")
                 (A") (A") (A') (A") (A') (A') (A') (A') (A') (A")
                 (A') (A") (A') (A") (A') (A') (A') (A") (A") (A')
                 (A') (A') (A") (A") (A') (A') (A') (A") (A") (A')
                 (A") (A') (A") (A') (A') (A') (A') (A") (A') (A')
                 (A") (A') (A") (A") (A') (A') (A") (A') (A') (A')
                 (A') (A') (A") (A') (A") (A') (A') (A") (A") (A')
                 (A") (A') (A") (A') (A') (A") (A") (A') (A") (A')
                 (A") (A') (A') (A') (A') (A') (A') (A') (A')
 The electronic state of the initial guess is 1-A'.
 Keep R1 ints in memory in symmetry-blocked form, NReq=128070129.
 Requested convergence on RMS density matrix=1.00D-08 within 128 cycles.
 Requested convergence on MAX density matrix=1.00D-06.
 Requested convergence on             energy=1.00D-06.
 No special actions if energy rises.
 SCF Done:  E(RHF) =  -188.270344146     A.U. after   12 cycles
            NFock= 12  Conv=0.85D-08     -V/T= 2.0017
 ExpMin= 2.53D-02 ExpMax= 1.53D+04 ExpMxC= 5.22D+02 IAcc=3 IRadAn=         5 AccDes= 0.00D+00
 HarFok:  IExCor=  205 AccDes= 0.00D+00 IRadAn=         5 IDoV=-2 UseB2=F ITyADJ=14
 ICtDFT= 12500011 ScaDFX=  1.000000  1.000000  1.000000  1.000000
 Range of M.O.s used for correlation:     4   161
 NBasis=   161 NAE=    12 NBE=    12 NFC=     3 NFV=     0
 NROrb=    158 NOA=     9 NOB=     9 NVA=   149 NVB=   149

 **** Warning!!: The largest alpha MO coefficient is  0.27102882D+02

 Disk-based method using ON**2 memory for  9 occupieds at a time.
 Permanent disk used for amplitudes=     3924660 words.
 Estimated scratch disk usage=   113146432 words.
 Actual    scratch disk usage=   109232192 words.
 JobTyp=1 Pass  1:  I=   4 to  12 NPSUse=  2 ParTrn=T ParDer=T DoDerP=T.
 (rs|ai) integrals will be sorted in core.
 Spin components of T(2) and E(2):
     alpha-alpha T2 =       0.2476297384D-01 E2=     -0.8624298701D-01
     alpha-beta  T2 =       0.1297352537D+00 E2=     -0.4857048983D+00
     beta-beta   T2 =       0.2476297384D-01 E2=     -0.8624298701D-01
 ANorm=    0.1085937936D+01
 E2 =    -0.6581908724D+00 EUMP2 =    -0.18892853501831D+03
 G2DrvN: will do     5 centers at a time, making    1 passes.
 Calling FoFCou, ICntrl=  3107 FMM=F I1Cent=   0 AccDes= 0.00D+00.
 End of G2Drv F.D. properties file   721 does not exist.
 End of G2Drv F.D. properties file   722 does not exist.
 End of G2Drv F.D. properties file   788 does not exist.
          IDoAtm=1111
          Differentiating once with respect to electric field.
                with respect to dipole field.
          Differentiating once with respect to nuclear coordinates.
 Keep R1 ints in memory in symmetry-blocked form, NReq=128071153.
          There are    15 degrees of freedom in the 1st order CPHF.  IDoFFX=6 NUNeed=    15.
     12 vectors produced by pass  0 Test12= 1.19D-14 6.67D-09 XBig12= 8.97D+00 1.35D+00.
 AX will form    12 AO Fock derivatives at one time.
     12 vectors produced by pass  1 Test12= 1.19D-14 6.67D-09 XBig12= 1.13D+00 2.71D-01.
     12 vectors produced by pass  2 Test12= 1.19D-14 6.67D-09 XBig12= 3.15D-02 3.90D-02.
     12 vectors produced by pass  3 Test12= 1.19D-14 6.67D-09 XBig12= 8.33D-04 6.36D-03.
     12 vectors produced by pass  4 Test12= 1.19D-14 6.67D-09 XBig12= 1.43D-05 8.66D-04.
     12 vectors produced by pass  5 Test12= 1.19D-14 6.67D-09 XBig12= 2.24D-07 1.41D-04.
     12 vectors produced by pass  6 Test12= 1.19D-14 6.67D-09 XBig12= 2.12D-09 1.48D-05.
      9 vectors produced by pass  7 Test12= 1.19D-14 6.67D-09 XBig12= 2.16D-11 9.91D-07.
      3 vectors produced by pass  8 Test12= 1.19D-14 6.67D-09 XBig12= 1.90D-13 8.91D-08.
      1 vectors produced by pass  9 Test12= 1.19D-14 6.67D-09 XBig12= 1.63D-15 1.00D-08.
 InvSVY:  IOpt=1 It=  1 EMax= 6.66D-16
 Solved reduced A of dimension    97 with    12 vectors.
 End of Minotr F.D. properties file   721 does not exist.
 End of Minotr F.D. properties file   722 does not exist.
 End of Minotr F.D. properties file   788 does not exist.
 MDV=   536870912.
 Form MO integral derivatives with frozen-active canonical formalism.
 Discarding MO integrals.
 Reordered first order wavefunction length =      6393888
 In DefCFB: NBatch=  1 ICI= 12 ICA=149 LFMax= 50
            Large arrays: LIAPS=   218779680 LIARS=   130792200 words.
 Semi-Direct transformation.
 ModeAB=           2 MOrb=            12 LenV=     536063119
 LASXX=     23759367 LTotXX=    23759367 LenRXX=    23759367
 LTotAB=    24195042 MaxLAS=    35056140 LenRXY=    35056140
 NonZer=    47518734 LenScr=    72043008 LnRSAI=           0
 LnScr1=           0 LExtra=           0 Total=    130858515
 MaxDsk=          -1 SrtSym=           F ITran=            4
 JobTyp=0 Pass  1:  I=   1 to  12.
 (rs|ai) integrals will be sorted in core.
 Spin components of T(2) and E(2):
     alpha-alpha T2 =       0.2476297384D-01 E2=     -0.8624298701D-01
     alpha-beta  T2 =       0.1297352537D+00 E2=     -0.4857048983D+00
     beta-beta   T2 =       0.2476297384D-01 E2=     -0.8624298701D-01
 ANorm=    0.1535748157D+01
 E2 =    -0.6581908724D+00 EUMP2 =    -0.18892853501831D+03
          IDoAtm=1111
          Differentiating once with respect to electric field.
                with respect to dipole field.
          Differentiating once with respect to nuclear coordinates.
          There are     1 degrees of freedom in the 1st order CPHF.  IDoFFX=0 NUNeed=     1.
 LinEq1:  Iter=  0 NonCon=     1 RMS=6.49D-03 Max=1.02D-01 NDo=     1
 LinEq1:  Iter=  1 NonCon=     1 RMS=1.57D-03 Max=1.66D-02 NDo=     1
 LinEq1:  Iter=  2 NonCon=     1 RMS=5.58D-04 Max=6.69D-03 NDo=     1
 LinEq1:  Iter=  3 NonCon=     1 RMS=2.02D-04 Max=2.10D-03 NDo=     1
 LinEq1:  Iter=  4 NonCon=     1 RMS=5.99D-05 Max=7.59D-04 NDo=     1
 LinEq1:  Iter=  5 NonCon=     1 RMS=1.18D-05 Max=1.20D-04 NDo=     1
 LinEq1:  Iter=  6 NonCon=     1 RMS=2.61D-06 Max=2.98D-05 NDo=     1
 LinEq1:  Iter=  7 NonCon=     1 RMS=8.42D-07 Max=1.39D-05 NDo=     1
 LinEq1:  Iter=  8 NonCon=     1 RMS=3.92D-07 Max=4.30D-06 NDo=     1
 LinEq1:  Iter=  9 NonCon=     1 RMS=9.52D-08 Max=1.13D-06 NDo=     1
 LinEq1:  Iter= 10 NonCon=     1 RMS=2.15D-08 Max=2.24D-07 NDo=     1
 LinEq1:  Iter= 11 NonCon=     1 RMS=3.97D-09 Max=4.46D-08 NDo=     1
 LinEq1:  Iter= 12 NonCon=     1 RMS=6.68D-10 Max=9.10D-09 NDo=     1
 LinEq1:  Iter= 13 NonCon=     1 RMS=8.41D-11 Max=1.23D-09 NDo=     1
 LinEq1:  Iter= 14 NonCon=     0 RMS=1.17D-11 Max=1.06D-10 NDo=     1
 Linear equations converged to 1.000D-10 1.000D-09 after    14 iterations.
 End of Minotr F.D. properties file   721 does not exist.
 End of Minotr F.D. properties file   722 does not exist.
 End of Minotr F.D. properties file   788 does not exist.
 Symmetrizing basis deriv contribution to polar:
 IMax=3 JMax=2 DiffMx= 0.00D+00
 G2DrvN: will do     5 centers at a time, making    1 passes.
 Calling FoFCou, ICntrl=  3107 FMM=F I1Cent=   0 AccDes= 0.00D+00.
 End of G2Drv F.D. properties file   721 does not exist.
 End of G2Drv F.D. properties file   722 does not exist.
 End of G2Drv F.D. properties file   788 does not exist.
 R2 and R3 integrals will be kept in memory, NReq=   332743010.
 DD1Dir will call FoFMem   1 times, MxPair=       156
 NAB=    78 NAA=     0 NBB=     0.
 Discarding MO integrals.

 **********************************************************************

            Population analysis using the SCF Density.

 **********************************************************************

 Orbital symmetries:
       Occupied  (A') (A') (A') (A') (A') (A') (A') (A') (A") (A')
                 (A') (A")
       Virtual   (A') (A') (A") (A') (A') (A') (A') (A") (A") (A')
                 (A') (A') (A") (A') (A") (A') (A') (A') (A') (A")
                 (A") (A') (A') (A") (A') (A') (A') (A') (A') (A")
                 (A') (A') (A") (A') (A") (A") (A') (A') (A") (A')
                 (A') (A") (A') (A') (A") (A') (A") (A') (A') (A")
                 (A') (A") (A') (A') (A') (A") (A') (A") (A') (A")
                 (A') (A') (A') (A") (A') (A') (A') (A") (A') (A")
                 (A") (A") (A') (A") (A') (A') (A') (A') (A') (A")
                 (A') (A") (A') (A") (A') (A') (A') (A") (A") (A')
                 (A') (A') (A") (A") (A') (A') (A") (A') (A") (A')
                 (A') (A") (A') (A") (A') (A') (A") (A') (A') (A')
                 (A") (A') (A") (A') (A") (A") (A') (A') (A') (A')
                 (A') (A') (A") (A') (A") (A') (A') (A") (A") (A')
                 (A") (A') (A") (A") (A') (A') (A') (A") (A') (A")
                 (A") (A') (A') (A') (A') (A') (A') (A') (A')
 The electronic state is 1-A'.
 Alpha  occ. eigenvalues --  -20.29239 -20.28590 -11.12519  -1.15404  -1.05929
 Alpha  occ. eigenvalues --   -0.55657  -0.42885  -0.38589  -0.33975  -0.20956
 Alpha  occ. eigenvalues --   -0.18741  -0.18679
 Alpha virt. eigenvalues --    0.14397   0.21291   0.21406   0.21695   0.28068
 Alpha virt. eigenvalues --    0.31824   0.32749   0.33847   0.36473   0.36902
 Alpha virt. eigenvalues --    0.39279   0.41825   0.42165   0.45670   0.49152
 Alpha virt. eigenvalues --    0.49509   0.52081   0.54344   0.58084   0.59040
 Alpha virt. eigenvalues --    0.62154   0.68725   0.70623   0.72283   0.78061
 Alpha virt. eigenvalues --    0.82016   0.87058   0.91069   0.94159   0.96342
 Alpha virt. eigenvalues --    0.99905   1.02927   1.04876   1.05519   1.06302
 Alpha virt. eigenvalues --    1.09616   1.11237   1.12649   1.12895   1.16086
 Alpha virt. eigenvalues --    1.21441   1.21455   1.22564   1.26175   1.27864
 Alpha virt. eigenvalues --    1.28038   1.32483   1.38147   1.41522   1.44121
 Alpha virt. eigenvalues --    1.47391   1.55639   1.57061   1.63612   1.65983
 Alpha virt. eigenvalues --    1.70087   1.76721   1.77527   1.81094   1.87603
 Alpha virt. eigenvalues --    1.91688   1.98648   2.11060   2.13290   2.20329
 Alpha virt. eigenvalues --    2.26732   2.41509   2.41593   2.45620   2.50059
 Alpha virt. eigenvalues --    2.57793   2.61910   2.63962   2.64328   2.64809
 Alpha virt. eigenvalues --    2.69326   2.72543   2.73049   2.79760   2.81588
 Alpha virt. eigenvalues --    2.84748   2.87119   2.90932   2.91978   2.98241
 Alpha virt. eigenvalues --    3.09918   3.13089   3.14652   3.15867   3.21594
 Alpha virt. eigenvalues --    3.33704   3.43495   3.43501   3.56059   3.64389
 Alpha virt. eigenvalues --    3.78581   3.80036   3.82059   4.04565   4.08688
 Alpha virt. eigenvalues --    4.21004   4.26722   4.26728   4.30052   4.34800
 Alpha virt. eigenvalues --    4.46019   4.53227   4.53534   4.73005   4.80900
 Alpha virt. eigenvalues --    4.87191   5.11773   5.22818   5.25564   5.34368
 Alpha virt. eigenvalues --    5.39415   5.42836   5.52793   5.82481   6.12415
 Alpha virt. eigenvalues --    6.51894   6.57988   6.84557   6.85731   6.87494
 Alpha virt. eigenvalues --    6.87530   7.07366   7.08658   7.10639   7.20567
 Alpha virt. eigenvalues --    7.30839   7.32337   7.38165   7.44169   7.44508
 Alpha virt. eigenvalues --    7.48028   7.53209   7.55146   7.77821   7.79587
 Alpha virt. eigenvalues --    7.85276   7.86136   7.94073   8.02320   8.16202
 Alpha virt. eigenvalues --    8.23226  13.57524  15.36114  16.63143
          Condensed to atoms (all electrons):
               1          2          3          4
     1  C    4.891555   0.431913   0.405253   0.284725
     2  O    0.431913   8.406769  -0.112307  -0.040336
     3  O    0.405253  -0.112307   8.449976  -0.051028
     4  H    0.284725  -0.040336  -0.051028   0.415260
 Mulliken charges:
               1
     1  C   -0.013446
     2  O   -0.686039
     3  O   -0.691894
     4  H    0.391379
 Sum of Mulliken charges =  -1.00000
 Mulliken charges with hydrogens summed into heavy atoms:
               1
     1  C    0.377933
     2  O   -0.686039
     3  O   -0.691894
 APT charges:
               1
     1  C    1.238051
     2  O   -1.015624
     3  O   -1.026357
     4  H   -0.196070
 Sum of APT charges =  -1.00000
 APT charges with hydrogens summed into heavy atoms:
               1
     1  C    1.041980
     2  O   -1.015624
     3  O   -1.026357
 Electronic spatial extent (au):  <R**2>=            137.7223
 Charge=             -1.0000 electrons
 Dipole moment (field-independent basis, Debye):
    X=             -0.0684    Y=              1.8621    Z=              0.0000  Tot=              1.8633
 Quadrupole moment (field-independent basis, Debye-Ang):
   XX=            -29.7185   YY=            -20.1770   ZZ=            -18.9193
   XY=             -0.4023   XZ=              0.0000   YZ=              0.0000
 Traceless Quadrupole moment (field-independent basis, Debye-Ang):
   XX=             -6.7802   YY=              2.7613   ZZ=              4.0189
   XY=             -0.4023   XZ=              0.0000   YZ=              0.0000
 Octapole moment (field-independent basis, Debye-Ang**2):
  XXX=             -0.0907  YYY=             -0.9790  ZZZ=              0.0000  XYY=             -0.0797
  XXY=              1.0131  XXZ=              0.0000  XZZ=              0.0530  YZZ=             -0.2333
  YYZ=              0.0000  XYZ=              0.0000
 Hexadecapole moment (field-independent basis, Debye-Ang**3):
 XXXX=           -138.8186 YYYY=            -42.8416 ZZZZ=            -19.8275 XXXY=             -0.8425
 XXXZ=              0.0000 YYYX=             -0.9127 YYYZ=              0.0000 ZZZX=              0.0000
 ZZZY=              0.0000 XXYY=            -28.3083 XXZZ=            -25.0153 YYZZ=            -10.2509
 XXYZ=              0.0000 YYXZ=              0.0000 ZZXY=             -0.1529
 N-N= 6.226161183589D+01 E-N=-5.765899036602D+02  KE= 1.879492607440D+02
 Symmetry A'   KE= 1.803294889415D+02
 Symmetry A"   KE= 7.619771802514D+00
  Exact polarizability:  41.418  -0.175  35.728   0.000   0.000  23.442
 Approx polarizability:  27.151  -0.264  22.984   0.000   0.000  18.523
 Calling FoFJK, ICntrl=  10100127 FMM=F ISym2X=1 I1Cent= 0 IOpClX= 0 NMat=1 NMatS=1 NMatT=0.
 ***** Axes restored to original set *****
 -------------------------------------------------------------------
 Center     Atomic                   Forces (Hartrees/Bohr)
 Number     Number              X              Y              Z
 -------------------------------------------------------------------
      1        6           0.004861444    0.000000000   -0.008629866
      2        8          -0.007574805    0.000000000   -0.007762128
      3        8           0.013667197    0.000000000    0.000812585
      4        1          -0.010953837    0.000000000    0.015579408
 -------------------------------------------------------------------
 Cartesian Forces:  Max     0.015579408 RMS     0.007989022
 -----------------------------------------------------------------------------------------------
                       Internal Coordinate Forces (Hartree/Bohr or radian)
  Cent   Atom   N1       Length/X         N2         Alpha/Y        N3         Beta/Z          J
 -----------------------------------------------------------------------------------------------
      1  C 
      2  O        1  -0.007762(     1)
      3  O        1   0.009918(     2)      2  -0.022444(     4)
      4  H        1   0.000868(     3)      2  -0.040455(     5)      3   0.000000(     6)     0
 -----------------------------------------------------------------------------------------------
 Internal  Forces:  Max     0.040455142 RMS     0.019577655

 GradGradGradGradGradGradGradGradGradGradGradGradGradGradGradGradGradGrad
 Berny optimization.
 Search for a local minimum.
 Step number   1 out of a maximum of   20
 All quantities printed in internal units (Hartrees-Bohrs-Radians)
 Second derivative matrix not updated -- analytic derivatives used.
 The second derivative matrix:
                          R1        R2        A1        A2
           R1           1.42079
           R2           0.07332   0.26413
           A1           0.04521  -0.04592   0.52606
           A2          -0.03277  -0.00713   0.18620   0.30494
 ITU=  0
     Eigenvalues ---    0.25084   0.53274   1.427401000.00000
 RFO step:  Lambda=-9.74198632D-04 EMin= 2.50844130D-01
 Linear search not attempted -- first point.
 Variable       Old X    -DE/DX   Delta X   Delta X   Delta X     New X
                                 (Linear)    (Quad)   (Total)
    R1        2.37778   0.00216   0.00000   0.00316   0.00316   2.38094
    R2        2.12642   0.00087   0.00000  -0.00510  -0.00510   2.12132
    A1        2.27209  -0.02244   0.00000  -0.04330  -0.04330   2.22879
    A2        2.13803  -0.04046   0.00000   0.00000   0.00000   2.13803
         Item               Value     Threshold  Converged?
 Maximum Force            0.022444     0.000450     NO 
 RMS     Force            0.013027     0.000300     NO 
 Maximum Displacement     0.043300     0.001800     NO 
 RMS     Displacement     0.021857     0.001200     NO 
 Predicted change in Energy=-4.880319D-04
 GradGradGradGradGradGradGradGradGradGradGradGradGradGradGradGradGradGrad

 ---------------------------------------------------------------------------------------------------
                            Z-MATRIX (ANGSTROMS AND DEGREES)
   CD    Cent   Atom    N1       Length/X        N2       Alpha/Y        N3        Beta/Z          J
 ---------------------------------------------------------------------------------------------------
      1      1  C 
      2      2  O        1   1.259940(     1)
      3      3  O        1   1.259940(     2)      2  127.700(     4)
      4      4  H        1   1.122552(     3)      2  122.500(     5)      3  180.000(     6)      0
 ---------------------------------------------------------------------------------------------------
                         Z-Matrix orientation:                         
 ---------------------------------------------------------------------
 Center     Atomic      Atomic             Coordinates (Angstroms)
 Number     Number       Type             X           Y           Z
 ---------------------------------------------------------------------
      1          6           0        0.000000    0.000000    0.000000
      2          8           0        0.000000    0.000000    1.259940
      3          8           0        0.996891    0.000000   -0.770491
      4          1           0       -0.946751    0.000000   -0.603147
 ---------------------------------------------------------------------
                    Distance matrix (angstroms):
                    1          2          3          4
     1  C    0.000000
     2  O    1.259940   0.000000
     3  O    1.259940   2.261955   0.000000
     4  H    1.122552   2.089839   1.950832   0.000000
 Stoichiometry    CHO2(1-)
 Framework group  CS[SG(CHO2)]
 Deg. of freedom     5
 Full point group                 CS      NOp   2
 Largest Abelian subgroup         CS      NOp   2
 Largest concise Abelian subgroup C1      NOp   1
                         Standard orientation:                         
 ---------------------------------------------------------------------
 Center     Atomic      Atomic             Coordinates (Angstroms)
 Number     Number       Type             X           Y           Z
 ---------------------------------------------------------------------
      1          6           0        0.000000    0.337819    0.000000
      2          8           0        1.139706   -0.199319    0.000000
      3          8           0       -1.121960   -0.235464    0.000000
      4          1           0       -0.141970    1.451357    0.000000
 ---------------------------------------------------------------------
 Rotational constants (GHZ):         101.7986340          12.3459925          11.0106381
 Standard basis: Aug-CC-pVTZ (5D, 7F)
 There are   129 symmetry adapted cartesian basis functions of A'  symmetry.
 There are    61 symmetry adapted cartesian basis functions of A"  symmetry.
 There are   106 symmetry adapted basis functions of A'  symmetry.
 There are    55 symmetry adapted basis functions of A"  symmetry.
   161 basis functions,   243 primitive gaussians,   190 cartesian basis functions
    12 alpha electrons       12 beta electrons
       nuclear repulsion energy        62.3169990058 Hartrees.
 NAtoms=    4 NActive=    4 NUniq=    4 SFac= 1.00D+00 NAtFMM=   60 NAOKFM=F Big=F
 Integral buffers will be    131072 words long.
 Raffenetti 1 integral format.
 Two-electron integral symmetry is turned on.
 One-electron integrals computed using PRISM.
 NBasis=   161 RedAO= T EigKep=  9.64D-05  NBF=   106    55
 NBsUse=   161 1.00D-06 EigRej= -1.00D+00 NBFU=   106    55
 Initial guess from the checkpoint file:  "C:\Users\Garrett\Downloads\NanoclusterOutput\Gau-15572.chk"
 B after Tr=     0.000000    0.000000    0.000000
         Rot=    0.999996    0.000000    0.000000    0.002884 Ang=   0.33 deg.
 Initial guess orbital symmetries:
       Occupied  (A') (A') (A') (A') (A') (A') (A') (A') (A") (A')
                 (A') (A")
       Virtual   (A') (A') (A") (A') (A') (A') (A') (A") (A") (A')
                 (A') (A') (A") (A') (A") (A') (A') (A') (A') (A")
                 (A") (A') (A') (A") (A') (A') (A') (A') (A') (A")
                 (A') (A') (A") (A') (A") (A") (A') (A') (A") (A')
                 (A') (A") (A') (A') (A") (A') (A") (A') (A') (A")
                 (A') (A") (A') (A') (A') (A") (A') (A") (A') (A")
                 (A') (A') (A') (A") (A') (A') (A') (A") (A') (A")
                 (A") (A") (A') (A") (A') (A') (A') (A') (A') (A")
                 (A') (A") (A') (A") (A') (A') (A') (A") (A") (A')
                 (A') (A') (A") (A") (A') (A') (A") (A') (A") (A')
                 (A') (A") (A') (A") (A') (A') (A") (A') (A') (A')
                 (A") (A') (A") (A') (A") (A") (A') (A') (A') (A')
                 (A') (A') (A") (A') (A") (A') (A') (A") (A") (A')
                 (A") (A') (A") (A") (A') (A') (A') (A") (A') (A")
                 (A") (A') (A') (A') (A') (A') (A') (A') (A')
 ExpMin= 2.53D-02 ExpMax= 1.53D+04 ExpMxC= 5.22D+02 IAcc=3 IRadAn=         5 AccDes= 0.00D+00
 Harris functional with IExCor=  205 and IRadAn=       5 diagonalized for initial guess.
 HarFok:  IExCor=  205 AccDes= 0.00D+00 IRadAn=         5 IDoV= 1 UseB2=F ITyADJ=14
 ICtDFT=  3500011 ScaDFX=  1.000000  1.000000  1.000000  1.000000
 FoFCou: FMM=F IPFlag=           0 FMFlag=      100000 FMFlg1=           0
         NFxFlg=           0 DoJE=T BraDBF=F KetDBF=T FulRan=T
         wScrn=  0.000000 ICntrl=       500 IOpCl=  0 I1Cent=   200000004 NGrid=           0
         NMat0=    1 NMatS0=      1 NMatT0=    0 NMatD0=    1 NMtDS0=    0 NMtDT0=    0
 Petite list used in FoFCou.
 Keep R1 ints in memory in symmetry-blocked form, NReq=128070129.
 Requested convergence on RMS density matrix=1.00D-08 within 128 cycles.
 Requested convergence on MAX density matrix=1.00D-06.
 Requested convergence on             energy=1.00D-06.
 No special actions if energy rises.
 SCF Done:  E(RHF) =  -188.270745291     A.U. after   11 cycles
            NFock= 11  Conv=0.30D-08     -V/T= 2.0017
 ExpMin= 2.53D-02 ExpMax= 1.53D+04 ExpMxC= 5.22D+02 IAcc=3 IRadAn=         5 AccDes= 0.00D+00
 HarFok:  IExCor=  205 AccDes= 0.00D+00 IRadAn=         5 IDoV=-2 UseB2=F ITyADJ=14
 ICtDFT= 12500011 ScaDFX=  1.000000  1.000000  1.000000  1.000000
 Range of M.O.s used for correlation:     4   161
 NBasis=   161 NAE=    12 NBE=    12 NFC=     3 NFV=     0
 NROrb=    158 NOA=     9 NOB=     9 NVA=   149 NVB=   149

 **** Warning!!: The largest alpha MO coefficient is  0.27634675D+02

 Fully direct method using O(ONN) memory.
 JobTyp=1 Pass  1:  I=   4 to  12 NPSUse=  2 ParTrn=T ParDer=T DoDerP=T.
 Spin components of T(2) and E(2):
     alpha-alpha T2 =       0.2477731560D-01 E2=     -0.8624470116D-01
     alpha-beta  T2 =       0.1298445890D+00 E2=     -0.4857884115D+00
     beta-beta   T2 =       0.2477731560D-01 E2=     -0.8624470116D-01
 ANorm=    0.1086001483D+01
 E2 =    -0.6582778138D+00 EUMP2 =    -0.18892902310508D+03
          IDoAtm=1111
          Differentiating once with respect to electric field.
                with respect to dipole field.
          Differentiating once with respect to nuclear coordinates.
 Keep R1 ints in memory in symmetry-blocked form, NReq=128071153.
          There are     1 degrees of freedom in the 1st order CPHF.  IDoFFX=0 NUNeed=     1.
 LinEq1:  Iter=  0 NonCon=     1 RMS=6.50D-03 Max=1.02D-01 NDo=     1
 AX will form     1 AO Fock derivatives at one time.
 LinEq1:  Iter=  1 NonCon=     1 RMS=1.58D-03 Max=1.67D-02 NDo=     1
 LinEq1:  Iter=  2 NonCon=     1 RMS=5.61D-04 Max=6.78D-03 NDo=     1
 LinEq1:  Iter=  3 NonCon=     1 RMS=2.05D-04 Max=2.19D-03 NDo=     1
 LinEq1:  Iter=  4 NonCon=     1 RMS=6.09D-05 Max=7.61D-04 NDo=     1
 LinEq1:  Iter=  5 NonCon=     1 RMS=1.23D-05 Max=1.27D-04 NDo=     1
 LinEq1:  Iter=  6 NonCon=     1 RMS=2.66D-06 Max=3.11D-05 NDo=     1
 LinEq1:  Iter=  7 NonCon=     1 RMS=6.52D-07 Max=9.07D-06 NDo=     1
 LinEq1:  Iter=  8 NonCon=     1 RMS=3.10D-07 Max=3.42D-06 NDo=     1
 LinEq1:  Iter=  9 NonCon=     1 RMS=9.44D-08 Max=1.16D-06 NDo=     1
 LinEq1:  Iter= 10 NonCon=     1 RMS=2.09D-08 Max=2.14D-07 NDo=     1
 LinEq1:  Iter= 11 NonCon=     1 RMS=3.91D-09 Max=4.09D-08 NDo=     1
 LinEq1:  Iter= 12 NonCon=     1 RMS=6.90D-10 Max=8.24D-09 NDo=     1
 LinEq1:  Iter= 13 NonCon=     1 RMS=9.02D-11 Max=1.31D-09 NDo=     1
 LinEq1:  Iter= 14 NonCon=     0 RMS=1.24D-11 Max=1.30D-10 NDo=     1
 Linear equations converged to 1.000D-10 1.000D-09 after    14 iterations.
 End of Minotr F.D. properties file   721 does not exist.
 End of Minotr F.D. properties file   722 does not exist.
 End of Minotr F.D. properties file   788 does not exist.
 Calling FoFJK, ICntrl=  10002127 FMM=F ISym2X=1 I1Cent= 0 IOpClX= 0 NMat=1 NMatS=1 NMatT=0.
 ***** Axes restored to original set *****
 -------------------------------------------------------------------
 Center     Atomic                   Forces (Hartrees/Bohr)
 Number     Number              X              Y              Z
 -------------------------------------------------------------------
      1        6           0.016264407    0.000000000   -0.001673997
      2        8          -0.013685844    0.000000000   -0.006794230
      3        8           0.005760392    0.000000000   -0.004442567
      4        1          -0.008338955    0.000000000    0.012910793
 -------------------------------------------------------------------
 Cartesian Forces:  Max     0.016264407 RMS     0.008113478
 -----------------------------------------------------------------------------------------------
                       Internal Coordinate Forces (Hartree/Bohr or radian)
  Cent   Atom   N1       Length/X         N2         Alpha/Y        N3         Beta/Z          J
 -----------------------------------------------------------------------------------------------
      1  C 
      2  O        1  -0.006794(     1)
      3  O        1   0.007275(     2)      2  -0.000018(     4)
      4  H        1   0.000096(     3)      2  -0.032603(     5)      3   0.000000(     6)     0
 -----------------------------------------------------------------------------------------------
 Internal  Forces:  Max     0.032603286 RMS     0.013916799

 GradGradGradGradGradGradGradGradGradGradGradGradGradGradGradGradGradGrad
 Berny optimization.
 Search for a local minimum.
 Step number   2 out of a maximum of   20
 All quantities printed in internal units (Hartrees-Bohrs-Radians)
 Update second derivatives using D2CorN and points    1    2
 DE= -4.88D-04 DEPred=-4.88D-04 R= 1.00D+00
 TightC=F SS=  1.41D+00  RLast= 4.37D-02 DXNew= 5.0454D-01 1.3114D-01
 Trust test= 1.00D+00 RLast= 4.37D-02 DXMaxT set to 3.00D-01
 The second derivative matrix:
                          R1        R2        A1        A2
           R1           1.42000
           R2           0.07387   0.26440
           A1           0.05060  -0.04475   0.52661
           A2          -0.03255  -0.00750   0.18306   0.30494
 ITU=  1  0
     Eigenvalues ---    0.25131   0.53246   1.427231000.00000
 RFO step:  Lambda=-1.79752929D-07 EMin= 2.51314743D-01
 Quartic linear search produced a step of  0.00186.
 Variable       Old X    -DE/DX   Delta X   Delta X   Delta X     New X
                                 (Linear)    (Quad)   (Total)
    R1        2.38094   0.00048   0.00001   0.00032   0.00033   2.38127
    R2        2.12132   0.00010  -0.00001   0.00027   0.00027   2.12158
    A1        2.22879  -0.00002  -0.00008   0.00004  -0.00004   2.22875
    A2        2.13803  -0.03260   0.00000   0.00000   0.00000   2.13803
         Item               Value     Threshold  Converged?
 Maximum Force            0.000480     0.000450     NO 
 RMS     Force            0.000283     0.000300     YES
 Maximum Displacement     0.000326     0.001800     YES
 RMS     Displacement     0.000211     0.001200     YES
 Predicted change in Energy=-9.139034D-08
 GradGradGradGradGradGradGradGradGradGradGradGradGradGradGradGradGradGrad

 ---------------------------------------------------------------------------------------------------
                            Z-MATRIX (ANGSTROMS AND DEGREES)
   CD    Cent   Atom    N1       Length/X        N2       Alpha/Y        N3        Beta/Z          J
 ---------------------------------------------------------------------------------------------------
      1      1  C 
      2      2  O        1   1.260112(     1)
      3      3  O        1   1.260112(     2)      2  127.698(     4)
      4      4  H        1   1.122692(     3)      2  122.500(     5)      3  180.000(     6)      0
 ---------------------------------------------------------------------------------------------------
                         Z-Matrix orientation:                         
 ---------------------------------------------------------------------
 Center     Atomic      Atomic             Coordinates (Angstroms)
 Number     Number       Type             X           Y           Z
 ---------------------------------------------------------------------
      1          6           0        0.000000    0.000000    0.000000
      2          8           0        0.000000    0.000000    1.260112
      3          8           0        0.997061    0.000000   -0.770554
      4          1           0       -0.946869    0.000000   -0.603222
 ---------------------------------------------------------------------
                    Distance matrix (angstroms):
                    1          2          3          4
     1  C    0.000000
     2  O    1.260112   0.000000
     3  O    1.260112   2.262241   0.000000
     4  H    1.122692   2.090114   1.951118   0.000000
 Stoichiometry    CHO2(1-)
 Framework group  CS[SG(CHO2)]
 Deg. of freedom     5
 Full point group                 CS      NOp   2
 Largest Abelian subgroup         CS      NOp   2
 Largest concise Abelian subgroup C1      NOp   1
                         Standard orientation:                         
 ---------------------------------------------------------------------
 Center     Atomic      Atomic             Coordinates (Angstroms)
 Number     Number       Type             X           Y           Z
 ---------------------------------------------------------------------
      1          6           0        0.000000    0.337883    0.000000
      2          8           0        1.139849   -0.199359    0.000000
      3          8           0       -1.122104   -0.235499    0.000000
      4          1           0       -0.141959    1.451564    0.000000
 ---------------------------------------------------------------------
 Rotational constants (GHZ):         101.7654614          12.3428726          11.0077685
 Standard basis: Aug-CC-pVTZ (5D, 7F)
 There are   129 symmetry adapted cartesian basis functions of A'  symmetry.
 There are    61 symmetry adapted cartesian basis functions of A"  symmetry.
 There are   106 symmetry adapted basis functions of A'  symmetry.
 There are    55 symmetry adapted basis functions of A"  symmetry.
   161 basis functions,   243 primitive gaussians,   190 cartesian basis functions
    12 alpha electrons       12 beta electrons
       nuclear repulsion energy        62.3086434230 Hartrees.
 NAtoms=    4 NActive=    4 NUniq=    4 SFac= 1.00D+00 NAtFMM=   60 NAOKFM=F Big=F
 Integral buffers will be    131072 words long.
 Raffenetti 1 integral format.
 Two-electron integral symmetry is turned on.
 One-electron integrals computed using PRISM.
 NBasis=   161 RedAO= T EigKep=  9.64D-05  NBF=   106    55
 NBsUse=   161 1.00D-06 EigRej= -1.00D+00 NBFU=   106    55
 Initial guess from the checkpoint file:  "C:\Users\Garrett\Downloads\NanoclusterOutput\Gau-15572.chk"
 B after Tr=     0.000000    0.000000    0.000000
         Rot=    1.000000    0.000000    0.000000    0.000003 Ang=   0.00 deg.
 Initial guess orbital symmetries:
       Occupied  (A') (A') (A') (A') (A') (A') (A') (A') (A") (A')
                 (A') (A")
       Virtual   (A') (A') (A") (A') (A') (A') (A') (A") (A") (A')
                 (A') (A') (A") (A') (A") (A') (A') (A') (A') (A")
                 (A") (A') (A') (A") (A') (A') (A') (A') (A') (A")
                 (A') (A') (A") (A') (A") (A") (A') (A') (A") (A')
                 (A") (A') (A') (A') (A") (A') (A") (A') (A') (A")
                 (A') (A") (A') (A') (A') (A") (A") (A') (A') (A")
                 (A') (A') (A') (A") (A') (A') (A") (A') (A') (A")
                 (A") (A") (A") (A') (A') (A') (A') (A') (A') (A")
                 (A') (A") (A') (A") (A') (A') (A') (A") (A") (A')
                 (A') (A') (A") (A") (A') (A') (A") (A') (A") (A')
                 (A') (A") (A') (A") (A') (A') (A') (A") (A') (A')
                 (A") (A') (A") (A') (A") (A") (A') (A') (A') (A')
                 (A') (A') (A") (A') (A") (A') (A") (A') (A") (A')
                 (A") (A') (A") (A") (A') (A') (A') (A") (A') (A")
                 (A") (A') (A') (A') (A') (A') (A') (A') (A')
 Keep R1 ints in memory in symmetry-blocked form, NReq=128070129.
 Requested convergence on RMS density matrix=1.00D-08 within 128 cycles.
 Requested convergence on MAX density matrix=1.00D-06.
 Requested convergence on             energy=1.00D-06.
 No special actions if energy rises.
 SCF Done:  E(RHF) =  -188.270714088     A.U. after    5 cycles
            NFock=  5  Conv=0.69D-08     -V/T= 2.0017
 ExpMin= 2.53D-02 ExpMax= 1.53D+04 ExpMxC= 5.22D+02 IAcc=3 IRadAn=         5 AccDes= 0.00D+00
 HarFok:  IExCor=  205 AccDes= 0.00D+00 IRadAn=         5 IDoV=-2 UseB2=F ITyADJ=14
 ICtDFT= 12500011 ScaDFX=  1.000000  1.000000  1.000000  1.000000
 Range of M.O.s used for correlation:     4   161
 NBasis=   161 NAE=    12 NBE=    12 NFC=     3 NFV=     0
 NROrb=    158 NOA=     9 NOB=     9 NVA=   149 NVB=   149

 **** Warning!!: The largest alpha MO coefficient is  0.27607365D+02

 Fully direct method using O(ONN) memory.
 JobTyp=1 Pass  1:  I=   4 to  12 NPSUse=  2 ParTrn=T ParDer=T DoDerP=T.
 Spin components of T(2) and E(2):
     alpha-alpha T2 =       0.2478176333D-01 E2=     -0.8624864263D-01
     alpha-beta  T2 =       0.1298680575D+00 E2=     -0.4858119154D+00
     beta-beta   T2 =       0.2478176333D-01 E2=     -0.8624864263D-01
 ANorm=    0.1086016383D+01
 E2 =    -0.6583092006D+00 EUMP2 =    -0.18892902328905D+03
          IDoAtm=1111
          Differentiating once with respect to electric field.
                with respect to dipole field.
          Differentiating once with respect to nuclear coordinates.
 Keep R1 ints in memory in symmetry-blocked form, NReq=128071153.
          There are     1 degrees of freedom in the 1st order CPHF.  IDoFFX=0 NUNeed=     1.
 LinEq1:  Iter=  0 NonCon=     1 RMS=6.51D-03 Max=1.02D-01 NDo=     1
 AX will form     1 AO Fock derivatives at one time.
 LinEq1:  Iter=  1 NonCon=     1 RMS=1.58D-03 Max=1.67D-02 NDo=     1
 LinEq1:  Iter=  2 NonCon=     1 RMS=5.62D-04 Max=6.79D-03 NDo=     1
 LinEq1:  Iter=  3 NonCon=     1 RMS=2.05D-04 Max=2.19D-03 NDo=     1
 LinEq1:  Iter=  4 NonCon=     1 RMS=6.10D-05 Max=7.62D-04 NDo=     1
 LinEq1:  Iter=  5 NonCon=     1 RMS=1.23D-05 Max=1.28D-04 NDo=     1
 LinEq1:  Iter=  6 NonCon=     1 RMS=2.67D-06 Max=3.11D-05 NDo=     1
 LinEq1:  Iter=  7 NonCon=     1 RMS=6.53D-07 Max=9.07D-06 NDo=     1
 LinEq1:  Iter=  8 NonCon=     1 RMS=3.10D-07 Max=3.42D-06 NDo=     1
 LinEq1:  Iter=  9 NonCon=     1 RMS=9.45D-08 Max=1.17D-06 NDo=     1
 LinEq1:  Iter= 10 NonCon=     1 RMS=2.09D-08 Max=2.14D-07 NDo=     1
 LinEq1:  Iter= 11 NonCon=     1 RMS=3.92D-09 Max=4.10D-08 NDo=     1
 LinEq1:  Iter= 12 NonCon=     1 RMS=6.91D-10 Max=8.24D-09 NDo=     1
 LinEq1:  Iter= 13 NonCon=     1 RMS=9.04D-11 Max=1.31D-09 NDo=     1
 LinEq1:  Iter= 14 NonCon=     0 RMS=1.24D-11 Max=1.30D-10 NDo=     1
 Linear equations converged to 1.000D-10 1.000D-09 after    14 iterations.
 End of Minotr F.D. properties file   721 does not exist.
 End of Minotr F.D. properties file   722 does not exist.
 End of Minotr F.D. properties file   788 does not exist.
 Calling FoFJK, ICntrl=  10002127 FMM=F ISym2X=1 I1Cent= 0 IOpClX= 0 NMat=1 NMatS=1 NMatT=0.
 ***** Axes restored to original set *****
 -------------------------------------------------------------------
 Center     Atomic                   Forces (Hartrees/Bohr)
 Number     Number              X              Y              Z
 -------------------------------------------------------------------
      1        6           0.016369715    0.000000000   -0.001627566
      2        8          -0.013681548    0.000000000   -0.007028528
      3        8           0.005564798    0.000000000   -0.004297326
      4        1          -0.008252965    0.000000000    0.012953420
 -------------------------------------------------------------------
 Cartesian Forces:  Max     0.016369715 RMS     0.008126797
 -----------------------------------------------------------------------------------------------
                       Internal Coordinate Forces (Hartree/Bohr or radian)
  Cent   Atom   N1       Length/X         N2         Alpha/Y        N3         Beta/Z          J
 -----------------------------------------------------------------------------------------------
      1  C 
      2  O        1  -0.007029(     1)
      3  O        1   0.007031(     2)      2  -0.000006(     4)
      4  H        1   0.000001(     3)      2  -0.032586(     5)      3   0.000000(     6)     0
 -----------------------------------------------------------------------------------------------
 Internal  Forces:  Max     0.032585613 RMS     0.013908369

 GradGradGradGradGradGradGradGradGradGradGradGradGradGradGradGradGradGrad
 Berny optimization.
 Search for a local minimum.
 Step number   3 out of a maximum of   20
 All quantities printed in internal units (Hartrees-Bohrs-Radians)
 Update second derivatives using D2CorN and points    1    3
 DE= -1.84D-07 DEPred=-9.14D-08 R= 2.01D+00
 Trust test= 2.01D+00 RLast= 4.23D-04 DXMaxT set to 3.00D-01
 The second derivative matrix:
                          R1        R2        A1        A2
           R1           1.41956
           R2           0.07413   0.26453
           A1           0.05333  -0.04416   0.52673
           A2          -0.03242  -0.00768   0.18145   0.30494
 ITU=  0  1  0
     Eigenvalues ---    0.25154   0.53215   1.427131000.00000
 RFO step:  Lambda= 0.00000000D+00 EMin= 2.51537689D-01
 Quartic linear search produced a step of  0.00165.
 Variable       Old X    -DE/DX   Delta X   Delta X   Delta X     New X
                                 (Linear)    (Quad)   (Total)
    R1        2.38127   0.00000   0.00000   0.00000   0.00000   2.38127
    R2        2.12158   0.00000   0.00000  -0.00001  -0.00001   2.12158
    A1        2.22875  -0.00001   0.00000  -0.00001  -0.00001   2.22873
    A2        2.13803  -0.03259   0.00000   0.00000   0.00000   2.13803
         Item               Value     Threshold  Converged?
 Maximum Force            0.000006     0.000450     YES
 RMS     Force            0.000004     0.000300     YES
 Maximum Displacement     0.000012     0.001800     YES
 RMS     Displacement     0.000007     0.001200     YES
 Predicted change in Energy=-3.568947D-11
 Optimization completed.
    -- Stationary point found.
                       ----------------------------
                       !   Optimized Parameters   !
                       ! (Angstroms and Degrees)  !
 ----------------------                            ----------------------
 !      Name          Value   Derivative information (Atomic Units)     !
 ------------------------------------------------------------------------
 !       R1          1.2601   -DE/DX =    0.0                           !
 !       R2          1.1227   -DE/DX =    0.0                           !
 !       A1        127.6978   -DE/DX =    0.0                           !
 !       A2        122.5      -DE/DX =   -0.0326                        !
 ------------------------------------------------------------------------
 GradGradGradGradGradGradGradGradGradGradGradGradGradGradGradGradGradGrad

 ---------------------------------------------------------------------------------------------------
                            Z-MATRIX (ANGSTROMS AND DEGREES)
   CD    Cent   Atom    N1       Length/X        N2       Alpha/Y        N3        Beta/Z          J
 ---------------------------------------------------------------------------------------------------
      1      1  C 
      2      2  O        1   1.260112(     1)
      3      3  O        1   1.260112(     2)      2  127.698(     4)
      4      4  H        1   1.122692(     3)      2  122.500(     5)      3  180.000(     6)      0
 ---------------------------------------------------------------------------------------------------
                         Z-Matrix orientation:                         
 ---------------------------------------------------------------------
 Center     Atomic      Atomic             Coordinates (Angstroms)
 Number     Number       Type             X           Y           Z
 ---------------------------------------------------------------------
      1          6           0        0.000000    0.000000    0.000000
      2          8           0        0.000000    0.000000    1.260112
      3          8           0        0.997061    0.000000   -0.770554
      4          1           0       -0.946869    0.000000   -0.603222
 ---------------------------------------------------------------------
                    Distance matrix (angstroms):
                    1          2          3          4
     1  C    0.000000
     2  O    1.260112   0.000000
     3  O    1.260112   2.262241   0.000000
     4  H    1.122692   2.090114   1.951118   0.000000
 Stoichiometry    CHO2(1-)
 Framework group  CS[SG(CHO2)]
 Deg. of freedom     5
 Full point group                 CS      NOp   2
 Largest Abelian subgroup         CS      NOp   2
 Largest concise Abelian subgroup C1      NOp   1
                         Standard orientation:                         
 ---------------------------------------------------------------------
 Center     Atomic      Atomic             Coordinates (Angstroms)
 Number     Number       Type             X           Y           Z
 ---------------------------------------------------------------------
      1          6           0        0.000000    0.337883    0.000000
      2          8           0        1.139849   -0.199359    0.000000
      3          8           0       -1.122104   -0.235499    0.000000
      4          1           0       -0.141959    1.451564    0.000000
 ---------------------------------------------------------------------
 Rotational constants (GHZ):         101.7654614          12.3428726          11.0077685

 **********************************************************************

            Population analysis using the SCF Density.

 **********************************************************************

 Orbital symmetries:
       Occupied  (A') (A') (A') (A') (A') (A') (A') (A') (A") (A')
                 (A') (A")
       Virtual   (A') (A') (A") (A') (A') (A') (A') (A") (A") (A')
                 (A') (A') (A") (A') (A") (A') (A') (A') (A') (A")
                 (A") (A') (A') (A") (A') (A') (A') (A') (A') (A")
                 (A') (A') (A") (A') (A") (A") (A') (A') (A") (A')
                 (A") (A') (A') (A') (A") (A') (A") (A') (A') (A")
                 (A') (A") (A') (A') (A') (A") (A") (A') (A') (A")
                 (A') (A') (A') (A") (A') (A') (A") (A') (A') (A")
                 (A") (A") (A") (A') (A') (A') (A') (A') (A') (A")
                 (A') (A") (A') (A") (A') (A') (A') (A") (A") (A')
                 (A') (A') (A") (A") (A') (A') (A") (A') (A") (A')
                 (A') (A") (A') (A") (A') (A') (A') (A") (A') (A')
                 (A") (A') (A") (A') (A") (A") (A') (A') (A') (A')
                 (A') (A') (A") (A') (A") (A') (A") (A') (A") (A')
                 (A") (A') (A") (A") (A') (A') (A') (A") (A') (A")
                 (A") (A') (A') (A') (A') (A') (A') (A') (A')
 The electronic state is 1-A'.
 Alpha  occ. eigenvalues --  -20.28990 -20.28446 -11.12468  -1.15297  -1.05414
 Alpha  occ. eigenvalues --   -0.55898  -0.42810  -0.38298  -0.33788  -0.20498
 Alpha  occ. eigenvalues --   -0.19153  -0.18383
 Alpha virt. eigenvalues --    0.14327   0.21271   0.21386   0.21739   0.28002
 Alpha virt. eigenvalues --    0.31823   0.32851   0.34026   0.36246   0.36708
 Alpha virt. eigenvalues --    0.39458   0.41875   0.42003   0.45503   0.49076
 Alpha virt. eigenvalues --    0.49756   0.51858   0.54367   0.57868   0.59511
 Alpha virt. eigenvalues --    0.61739   0.68731   0.70555   0.72393   0.77984
 Alpha virt. eigenvalues --    0.81736   0.87896   0.91126   0.93714   0.96838
 Alpha virt. eigenvalues --    1.00114   1.02469   1.04708   1.05861   1.07090
 Alpha virt. eigenvalues --    1.09525   1.11185   1.12553   1.12767   1.15624
 Alpha virt. eigenvalues --    1.21241   1.21591   1.22301   1.25834   1.27692
 Alpha virt. eigenvalues --    1.28805   1.31663   1.39265   1.41502   1.44247
 Alpha virt. eigenvalues --    1.46787   1.56280   1.56573   1.63124   1.65557
 Alpha virt. eigenvalues --    1.70252   1.76675   1.77281   1.81046   1.88468
 Alpha virt. eigenvalues --    1.91807   1.98115   2.10255   2.13025   2.21275
 Alpha virt. eigenvalues --    2.28361   2.42279   2.42401   2.44891   2.49071
 Alpha virt. eigenvalues --    2.57869   2.61976   2.64548   2.64575   2.65130
 Alpha virt. eigenvalues --    2.69421   2.72712   2.73271   2.78142   2.81983
 Alpha virt. eigenvalues --    2.84425   2.87715   2.89908   2.91947   2.98768
 Alpha virt. eigenvalues --    3.09574   3.13846   3.14217   3.15293   3.23625
 Alpha virt. eigenvalues --    3.32743   3.42331   3.43765   3.56262   3.63094
 Alpha virt. eigenvalues --    3.77954   3.79277   3.81814   4.05915   4.09226
 Alpha virt. eigenvalues --    4.20932   4.25545   4.27911   4.30495   4.33549
 Alpha virt. eigenvalues --    4.46003   4.51412   4.53412   4.72722   4.82796
 Alpha virt. eigenvalues --    4.87212   5.13209   5.23509   5.25757   5.33119
 Alpha virt. eigenvalues --    5.38215   5.42911   5.50304   5.81252   6.14104
 Alpha virt. eigenvalues --    6.51831   6.57560   6.85335   6.86220   6.87264
 Alpha virt. eigenvalues --    6.87299   7.08450   7.08712   7.10393   7.19856
 Alpha virt. eigenvalues --    7.29598   7.30903   7.38551   7.43724   7.44838
 Alpha virt. eigenvalues --    7.48535   7.52884   7.55670   7.75275   7.79876
 Alpha virt. eigenvalues --    7.84123   7.87310   7.93846   8.02465   8.17204
 Alpha virt. eigenvalues --    8.23356  13.46896  15.32356  16.59164
          Condensed to atoms (all electrons):
               1          2          3          4
     1  C    4.889791   0.434512   0.411845   0.275441
     2  O    0.434512   8.411131  -0.116975  -0.037075
     3  O    0.411845  -0.116975   8.445596  -0.043072
     4  H    0.275441  -0.037075  -0.043072   0.404128
 Mulliken charges:
               1
     1  C   -0.011589
     2  O   -0.691594
     3  O   -0.697394
     4  H    0.400578
 Sum of Mulliken charges =  -1.00000
 Mulliken charges with hydrogens summed into heavy atoms:
               1
     1  C    0.388988
     2  O   -0.691594
     3  O   -0.697394
 Electronic spatial extent (au):  <R**2>=            136.8798
 Charge=             -1.0000 electrons
 Dipole moment (field-independent basis, Debye):
    X=             -0.0589    Y=              1.9958    Z=              0.0000  Tot=              1.9967
 Quadrupole moment (field-independent basis, Debye-Ang):
   XX=            -29.7003   YY=            -20.0119   ZZ=            -18.9231
   XY=             -0.3321   XZ=              0.0000   YZ=              0.0000
 Traceless Quadrupole moment (field-independent basis, Debye-Ang):
   XX=             -6.8219   YY=              2.8665   ZZ=              3.9553
   XY=             -0.3321   XZ=              0.0000   YZ=              0.0000
 Octapole moment (field-independent basis, Debye-Ang**2):
  XXX=             -0.0747  YYY=             -0.7353  ZZZ=              0.0000  XYY=             -0.0901
  XXY=              0.9417  XXZ=              0.0000  XZZ=              0.0421  YZZ=             -0.2107
  YYZ=              0.0000  XYZ=              0.0000
 Hexadecapole moment (field-independent basis, Debye-Ang**3):
 XXXX=           -137.5592 YYYY=            -42.8522 ZZZZ=            -19.8332 XXXY=             -0.6346
 XXXZ=              0.0000 YYYX=             -0.7372 YYYZ=              0.0000 ZZZX=              0.0000
 ZZZY=              0.0000 XXYY=            -28.0700 XXZZ=            -24.8102 YYZZ=            -10.2997
 XXYZ=              0.0000 YYXZ=              0.0000 ZZXY=             -0.1091
 N-N= 6.230864342303D+01 E-N=-5.767119396162D+02  KE= 1.879420767264D+02
 Symmetry A'   KE= 1.803267011999D+02
 Symmetry A"   KE= 7.615375526464D+00
 1|1|UNPC-DESKTOP-F4NP0R6|POpt|RMP2-FC|Aug-CC-pVTZ|C1H1O2(1-)|GARRETT|2
 3-Jul-2018|1||# MP2 Aug-cc-pvTZ opt=(noeigen,calcfc,z-matrix)||Formate
 ||-1,1|C|O,1,R1|O,1,R1,2,A1|H,1,R2,2,A2,3,180.,0||R1=1.26011227|R2=1.1
 2269226|A1=127.69775744|A2=122.5||Version=EM64W-G16RevB.01|State=1-A'|
 HF=-188.2707141|MP2=-188.9290233|RMSD=6.925e-009|RMSF=8.127e-003|Dipol
 e=-0.5487172,0.,-0.2759433|PG=CS [SG(C1H1O2)]||@


 TRUTH, IN SCIENCE, CAN BE DEFINED AS THE WORKING HYPOTHESIS 
 BEST FITTED TO OPEN THE WAY TO THE NEXT BETTER ONE.

                              -- KONRAD LORENZ
 Job cpu time:       0 days  0 hours 35 minutes 26.0 seconds.
 Elapsed time:       0 days  0 hours 34 minutes 32.5 seconds.
 File lengths (MBytes):  RWF=   2790 Int=      0 D2E=      0 Chk=      4 Scr=      1
 Normal termination of Gaussian 16 at Mon Jul 23 17:34:26 2018.
