 Entering Link 1 = C:\G16W\l1.exe PID=      7344.
  
 Copyright (c) 1988-2017, Gaussian, Inc.  All Rights Reserved.
  
 This is part of the Gaussian(R) 16 program.  It is based on
 the Gaussian(R) 09 system (copyright 2009, Gaussian, Inc.),
 the Gaussian(R) 03 system (copyright 2003, Gaussian, Inc.),
 the Gaussian(R) 98 system (copyright 1998, Gaussian, Inc.),
 the Gaussian(R) 94 system (copyright 1995, Gaussian, Inc.),
 the Gaussian 92(TM) system (copyright 1992, Gaussian, Inc.),
 the Gaussian 90(TM) system (copyright 1990, Gaussian, Inc.),
 the Gaussian 88(TM) system (copyright 1988, Gaussian, Inc.),
 the Gaussian 86(TM) system (copyright 1986, Carnegie Mellon
 University), and the Gaussian 82(TM) system (copyright 1983,
 Carnegie Mellon University). Gaussian is a federally registered
 trademark of Gaussian, Inc.
  
 This software contains proprietary and confidential information,
 including trade secrets, belonging to Gaussian, Inc.
  
 This software is provided under written license and may be
 used, copied, transmitted, or stored only in accord with that
 written license.
  
 The following legend is applicable only to US Government
 contracts under FAR:
  
                    RESTRICTED RIGHTS LEGEND
  
 Use, reproduction and disclosure by the US Government is
 subject to restrictions as set forth in subparagraphs (a)
 and (c) of the Commercial Computer Software - Restricted
 Rights clause in FAR 52.227-19.
  
 Gaussian, Inc.
 340 Quinnipiac St., Bldg. 40, Wallingford CT 06492
  
  
 ---------------------------------------------------------------
 Warning -- This program may not be used in any manner that
 competes with the business of Gaussian, Inc. or will provide
 assistance to any competitor of Gaussian, Inc.  The licensee
 of this program is prohibited from giving any competitor of
 Gaussian, Inc. access to this program.  By using this program,
 the user acknowledges that Gaussian, Inc. is engaged in the
 business of creating and licensing software in the field of
 computational chemistry and represents and warrants to the
 licensee that it is not a competitor of Gaussian, Inc. and that
 it will not use this program in any manner prohibited above.
 ---------------------------------------------------------------
  

 Cite this work as:
 Gaussian 16, Revision B.01,
 M. J. Frisch, G. W. Trucks, H. B. Schlegel, G. E. Scuseria, 
 M. A. Robb, J. R. Cheeseman, G. Scalmani, V. Barone, 
 G. A. Petersson, H. Nakatsuji, X. Li, M. Caricato, A. V. Marenich, 
 J. Bloino, B. G. Janesko, R. Gomperts, B. Mennucci, H. P. Hratchian, 
 J. V. Ortiz, A. F. Izmaylov, J. L. Sonnenberg, D. Williams-Young, 
 F. Ding, F. Lipparini, F. Egidi, J. Goings, B. Peng, A. Petrone, 
 T. Henderson, D. Ranasinghe, V. G. Zakrzewski, J. Gao, N. Rega, 
 G. Zheng, W. Liang, M. Hada, M. Ehara, K. Toyota, R. Fukuda, 
 J. Hasegawa, M. Ishida, T. Nakajima, Y. Honda, O. Kitao, H. Nakai, 
 T. Vreven, K. Throssell, J. A. Montgomery, Jr., J. E. Peralta, 
 F. Ogliaro, M. J. Bearpark, J. J. Heyd, E. N. Brothers, K. N. Kudin, 
 V. N. Staroverov, T. A. Keith, R. Kobayashi, J. Normand, 
 K. Raghavachari, A. P. Rendell, J. C. Burant, S. S. Iyengar, 
 J. Tomasi, M. Cossi, J. M. Millam, M. Klene, C. Adamo, R. Cammi, 
 J. W. Ochterski, R. L. Martin, K. Morokuma, O. Farkas, 
 J. B. Foresman, and D. J. Fox, Gaussian, Inc., Wallingford CT, 2016.
 
 ******************************************
 Gaussian 16:  EM64W-G16RevB.01 16-Dec-2017
                23-Jul-2018 
 ******************************************
 %nproc=2
 Will use up to    2 processors via shared memory.
 %mem=4gb
 -----------------------------------------------
 # MP2 Aug-cc-pvTZ opt=(noeigen,calcfc,z-matrix)
 -----------------------------------------------
 1/10=4,11=1,18=40,38=1/1,3;
 2/12=2,17=6,18=5,29=3,40=1/2;
 3/5=16,6=1,7=10,11=9,25=1,30=1,71=2,140=1/1,2,3;
 4//1;
 5/5=2,38=5/2;
 8/6=3,8=1,10=1,19=11,30=-1/1;
 9/15=3,16=-3/6;
 11/6=1,8=1,15=11,17=12,24=-1,27=1,28=-2,29=300,32=6,42=3/1,2,10;
 10/6=2,21=1/2;
 8/6=4,8=1,10=1,19=11,30=-1/11,4;
 10/5=1,20=4/2;
 11/12=2,14=11,16=1,17=2,28=-2,42=3,76=2/2,10,12;
 6/7=2,8=2,9=2,10=2/1;
 7/10=1,12=2,25=1,44=2/1,2,3,16;
 1/10=4,11=1,18=40/3(2);
 2/29=3/2;
 99//99;
 2/29=3/2;
 3/5=16,6=1,7=10,11=9,25=1,30=1,71=1/1,2,3;
 4/5=5,16=3,69=1/1;
 5/5=2,38=5/2;
 8/6=4,10=1/1;
 9/15=2,16=-3/6;
 10/5=1/2;
 7/12=2/1,2,3,16;
 1/11=1,18=40/3(-8);
 2/29=3/2;
 6/7=2,8=2,9=2,10=2/1;
 99/9=10/99;
 -------
 Formate
 -------
 Symbolic Z-matrix:
 Charge = -1 Multiplicity = 1
 C
 O                    1    R
 O                    1    R1       2    A1
 H                    1    R2       2    A2       3     180.     0
       Variables:
  R1                    1.25827                  
  R2                    1.12525                  
  A1                  130.18115                  
  A2                  114.9094                   
       Constants:
  R                     1.05                     
 

 GradGradGradGradGradGradGradGradGradGradGradGradGradGradGradGradGradGrad
 Berny optimization.
 Initialization pass.
                       ----------------------------
                       !    Initial Parameters    !
                       ! (Angstroms and Degrees)  !
 ----------------------                            ----------------------
 !      Name          Value   Derivative information (Atomic Units)     !
 ------------------------------------------------------------------------
 !       R1          1.2583   calculate D2E/DX2 analytically            !
 !       R2          1.1253   calculate D2E/DX2 analytically            !
 !       A1        130.1811   calculate D2E/DX2 analytically            !
 !       A2        114.9094   calculate D2E/DX2 analytically            !
 !        R          1.05     frozen, calculate D2E/DX2 analytically    !
 ------------------------------------------------------------------------
 Trust Radius=3.00D-01 FncErr=1.00D-07 GrdErr=1.00D-07 EigMax=2.50D+02 EigMin=1.00D-04
 Number of steps in this run=     20 maximum allowed number of steps=    100.
 GradGradGradGradGradGradGradGradGradGradGradGradGradGradGradGradGradGrad

 ---------------------------------------------------------------------------------------------------
                            Z-MATRIX (ANGSTROMS AND DEGREES)
   CD    Cent   Atom    N1       Length/X        N2       Alpha/Y        N3        Beta/Z          J
 ---------------------------------------------------------------------------------------------------
      1      1  C 
      2      2  O        1   1.050000(     1)
      3      3  O        1   1.258269(     2)      2  130.181(     4)
      4      4  H        1   1.125251(     3)      2  114.909(     5)      3  180.000(     6)      0
 ---------------------------------------------------------------------------------------------------
                         Z-Matrix orientation:                         
 ---------------------------------------------------------------------
 Center     Atomic      Atomic             Coordinates (Angstroms)
 Number     Number       Type             X           Y           Z
 ---------------------------------------------------------------------
      1          6           0        0.000000    0.000000    0.000000
      2          8           0        0.000000    0.000000    1.050000
      3          8           0        0.961328    0.000000   -0.811843
      4          1           0       -1.020575    0.000000   -0.473938
 ---------------------------------------------------------------------
                    Distance matrix (angstroms):
                    1          2          3          4
     1  C    0.000000
     2  O    1.050000   0.000000
     3  O    1.258269   2.095379   0.000000
     4  H    1.125251   1.834110   2.010502   0.000000
 Stoichiometry    CHO2(1-)
 Framework group  CS[SG(CHO2)]
 Deg. of freedom     5
 Full point group                 CS      NOp   2
 Largest Abelian subgroup         CS      NOp   2
 Largest concise Abelian subgroup C1      NOp   1
                         Standard orientation:                         
 ---------------------------------------------------------------------
 Center     Atomic      Atomic             Coordinates (Angstroms)
 Number     Number       Type             X           Y           Z
 ---------------------------------------------------------------------
      1          6           0        0.000000    0.296604    0.000000
      2          8           0        1.026629    0.076302    0.000000
      3          8           0       -0.995471   -0.472992    0.000000
      4          1           0       -0.249261    1.393901    0.000000
 ---------------------------------------------------------------------
 Rotational constants (GHZ):         121.6942516          14.3329741          12.8227312
 Standard basis: Aug-CC-pVTZ (5D, 7F)
 There are   129 symmetry adapted cartesian basis functions of A'  symmetry.
 There are    61 symmetry adapted cartesian basis functions of A"  symmetry.
 There are   106 symmetry adapted basis functions of A'  symmetry.
 There are    55 symmetry adapted basis functions of A"  symmetry.
   161 basis functions,   243 primitive gaussians,   190 cartesian basis functions
    12 alpha electrons       12 beta electrons
       nuclear repulsion energy        67.7761451090 Hartrees.
 NAtoms=    4 NActive=    4 NUniq=    4 SFac= 1.00D+00 NAtFMM=   60 NAOKFM=F Big=F
 Integral buffers will be    131072 words long.
 Raffenetti 1 integral format.
 Two-electron integral symmetry is turned on.
 One-electron integrals computed using PRISM.
 NBasis=   161 RedAO= T EigKep=  8.86D-05  NBF=   106    55
 NBsUse=   161 1.00D-06 EigRej= -1.00D+00 NBFU=   106    55
 ExpMin= 2.53D-02 ExpMax= 1.53D+04 ExpMxC= 5.22D+02 IAcc=3 IRadAn=         5 AccDes= 0.00D+00
 Harris functional with IExCor=  205 and IRadAn=       5 diagonalized for initial guess.
 HarFok:  IExCor=  205 AccDes= 0.00D+00 IRadAn=         5 IDoV= 1 UseB2=F ITyADJ=14
 ICtDFT=  3500011 ScaDFX=  1.000000  1.000000  1.000000  1.000000
 FoFCou: FMM=F IPFlag=           0 FMFlag=      100000 FMFlg1=           0
         NFxFlg=           0 DoJE=T BraDBF=F KetDBF=T FulRan=T
         wScrn=  0.000000 ICntrl=       500 IOpCl=  0 I1Cent=   200000004 NGrid=           0
         NMat0=    1 NMatS0=      1 NMatT0=    0 NMatD0=    1 NMtDS0=    0 NMtDT0=    0
 Petite list used in FoFCou.
 Initial guess orbital symmetries:
       Occupied  (A') (A') (A') (A') (A') (A') (A') (A") (A') (A")
                 (A') (A')
       Virtual   (A") (A') (A') (A') (A") (A') (A') (A') (A') (A")
                 (A") (A') (A') (A') (A") (A') (A') (A') (A") (A')
                 (A") (A') (A') (A') (A") (A') (A') (A') (A") (A')
                 (A') (A') (A") (A') (A") (A") (A') (A") (A') (A')
                 (A') (A') (A") (A") (A') (A") (A') (A') (A") (A')
                 (A') (A') (A") (A') (A') (A") (A') (A") (A') (A")
                 (A') (A') (A') (A") (A') (A') (A') (A") (A') (A")
                 (A") (A") (A') (A') (A") (A') (A') (A') (A') (A")
                 (A') (A') (A") (A") (A') (A") (A') (A") (A') (A')
                 (A') (A") (A') (A") (A') (A') (A") (A') (A') (A")
                 (A") (A') (A') (A') (A") (A') (A") (A') (A') (A')
                 (A") (A') (A") (A') (A") (A') (A') (A") (A') (A')
                 (A') (A') (A") (A') (A") (A') (A") (A") (A') (A')
                 (A") (A') (A') (A") (A') (A") (A') (A") (A") (A")
                 (A') (A') (A') (A') (A') (A') (A') (A') (A')
 The electronic state of the initial guess is 1-A'.
 Keep R1 ints in memory in symmetry-blocked form, NReq=128070129.
 Requested convergence on RMS density matrix=1.00D-08 within 128 cycles.
 Requested convergence on MAX density matrix=1.00D-06.
 Requested convergence on             energy=1.00D-06.
 No special actions if energy rises.
 SCF Done:  E(RHF) =  -188.211881709     A.U. after   12 cycles
            NFock= 12  Conv=0.99D-08     -V/T= 1.9954
 ExpMin= 2.53D-02 ExpMax= 1.53D+04 ExpMxC= 5.22D+02 IAcc=3 IRadAn=         5 AccDes= 0.00D+00
 HarFok:  IExCor=  205 AccDes= 0.00D+00 IRadAn=         5 IDoV=-2 UseB2=F ITyADJ=14
 ICtDFT= 12500011 ScaDFX=  1.000000  1.000000  1.000000  1.000000
 Range of M.O.s used for correlation:     4   161
 NBasis=   161 NAE=    12 NBE=    12 NFC=     3 NFV=     0
 NROrb=    158 NOA=     9 NOB=     9 NVA=   149 NVB=   149

 **** Warning!!: The largest alpha MO coefficient is  0.36781494D+02

 Disk-based method using ON**2 memory for  9 occupieds at a time.
 Permanent disk used for amplitudes=     3924660 words.
 Estimated scratch disk usage=   113146432 words.
 Actual    scratch disk usage=   109232192 words.
 JobTyp=1 Pass  1:  I=   4 to  12 NPSUse=  2 ParTrn=T ParDer=T DoDerP=T.
 (rs|ai) integrals will be sorted in core.
 Spin components of T(2) and E(2):
     alpha-alpha T2 =       0.2242972228D-01 E2=     -0.8397361809D-01
     alpha-beta  T2 =       0.1177098924D+00 E2=     -0.4720321146D+00
     beta-beta   T2 =       0.2242972228D-01 E2=     -0.8397361809D-01
 ANorm=    0.1078225086D+01
 E2 =    -0.6399793508D+00 EUMP2 =    -0.18885186105988D+03
 G2DrvN: will do     5 centers at a time, making    1 passes.
 Calling FoFCou, ICntrl=  3107 FMM=F I1Cent=   0 AccDes= 0.00D+00.
 End of G2Drv F.D. properties file   721 does not exist.
 End of G2Drv F.D. properties file   722 does not exist.
 End of G2Drv F.D. properties file   788 does not exist.
          IDoAtm=1111
          Differentiating once with respect to electric field.
                with respect to dipole field.
          Differentiating once with respect to nuclear coordinates.
 Keep R1 ints in memory in symmetry-blocked form, NReq=128071153.
          There are    15 degrees of freedom in the 1st order CPHF.  IDoFFX=6 NUNeed=    15.
     12 vectors produced by pass  0 Test12= 1.19D-14 6.67D-09 XBig12= 8.65D+00 1.28D+00.
 AX will form    12 AO Fock derivatives at one time.
     12 vectors produced by pass  1 Test12= 1.19D-14 6.67D-09 XBig12= 7.13D-01 2.38D-01.
     12 vectors produced by pass  2 Test12= 1.19D-14 6.67D-09 XBig12= 1.94D-02 3.12D-02.
     12 vectors produced by pass  3 Test12= 1.19D-14 6.67D-09 XBig12= 5.58D-04 5.15D-03.
     12 vectors produced by pass  4 Test12= 1.19D-14 6.67D-09 XBig12= 9.24D-06 6.93D-04.
     12 vectors produced by pass  5 Test12= 1.19D-14 6.67D-09 XBig12= 1.18D-07 7.55D-05.
     12 vectors produced by pass  6 Test12= 1.19D-14 6.67D-09 XBig12= 1.64D-09 1.16D-05.
      8 vectors produced by pass  7 Test12= 1.19D-14 6.67D-09 XBig12= 1.84D-11 7.99D-07.
      4 vectors produced by pass  8 Test12= 1.19D-14 6.67D-09 XBig12= 1.66D-13 6.52D-08.
 InvSVY:  IOpt=1 It=  1 EMax= 7.77D-16
 Solved reduced A of dimension    96 with    12 vectors.
 End of Minotr F.D. properties file   721 does not exist.
 End of Minotr F.D. properties file   722 does not exist.
 End of Minotr F.D. properties file   788 does not exist.
 MDV=   536870912.
 Form MO integral derivatives with frozen-active canonical formalism.
 Discarding MO integrals.
 Reordered first order wavefunction length =      6393888
 In DefCFB: NBatch=  1 ICI= 12 ICA=149 LFMax= 50
            Large arrays: LIAPS=   218779680 LIARS=   130792200 words.
 Semi-Direct transformation.
 ModeAB=           2 MOrb=            12 LenV=     536062461
 LASXX=     23759367 LTotXX=    23759367 LenRXX=    23759367
 LTotAB=    24195042 MaxLAS=    35056140 LenRXY=    35056140
 NonZer=    47518734 LenScr=    72043008 LnRSAI=           0
 LnScr1=           0 LExtra=           0 Total=    130858515
 MaxDsk=          -1 SrtSym=           F ITran=            4
 JobTyp=0 Pass  1:  I=   1 to  12.
 (rs|ai) integrals will be sorted in core.
 Spin components of T(2) and E(2):
     alpha-alpha T2 =       0.2242972228D-01 E2=     -0.8397361809D-01
     alpha-beta  T2 =       0.1177098924D+00 E2=     -0.4720321146D+00
     beta-beta   T2 =       0.2242972228D-01 E2=     -0.8397361809D-01
 ANorm=    0.1524840540D+01
 E2 =    -0.6399793508D+00 EUMP2 =    -0.18885186105988D+03
          IDoAtm=1111
          Differentiating once with respect to electric field.
                with respect to dipole field.
          Differentiating once with respect to nuclear coordinates.
          There are     1 degrees of freedom in the 1st order CPHF.  IDoFFX=0 NUNeed=     1.
 LinEq1:  Iter=  0 NonCon=     1 RMS=5.69D-03 Max=7.70D-02 NDo=     1
 LinEq1:  Iter=  1 NonCon=     1 RMS=1.21D-03 Max=9.22D-03 NDo=     1
 LinEq1:  Iter=  2 NonCon=     1 RMS=4.60D-04 Max=6.11D-03 NDo=     1
 LinEq1:  Iter=  3 NonCon=     1 RMS=1.68D-04 Max=1.55D-03 NDo=     1
 LinEq1:  Iter=  4 NonCon=     1 RMS=7.01D-05 Max=1.22D-03 NDo=     1
 LinEq1:  Iter=  5 NonCon=     1 RMS=2.18D-05 Max=1.56D-04 NDo=     1
 LinEq1:  Iter=  6 NonCon=     1 RMS=9.60D-06 Max=1.10D-04 NDo=     1
 LinEq1:  Iter=  7 NonCon=     1 RMS=2.10D-06 Max=1.92D-05 NDo=     1
 LinEq1:  Iter=  8 NonCon=     1 RMS=4.48D-07 Max=4.43D-06 NDo=     1
 LinEq1:  Iter=  9 NonCon=     1 RMS=8.43D-08 Max=6.43D-07 NDo=     1
 LinEq1:  Iter= 10 NonCon=     1 RMS=1.37D-08 Max=1.37D-07 NDo=     1
 LinEq1:  Iter= 11 NonCon=     1 RMS=1.82D-09 Max=1.60D-08 NDo=     1
 LinEq1:  Iter= 12 NonCon=     1 RMS=2.54D-10 Max=2.51D-09 NDo=     1
 LinEq1:  Iter= 13 NonCon=     0 RMS=3.71D-11 Max=3.61D-10 NDo=     1
 Linear equations converged to 1.000D-10 1.000D-09 after    13 iterations.
 End of Minotr F.D. properties file   721 does not exist.
 End of Minotr F.D. properties file   722 does not exist.
 End of Minotr F.D. properties file   788 does not exist.
 Symmetrizing basis deriv contribution to polar:
 IMax=3 JMax=2 DiffMx= 0.00D+00
 G2DrvN: will do     5 centers at a time, making    1 passes.
 Calling FoFCou, ICntrl=  3107 FMM=F I1Cent=   0 AccDes= 0.00D+00.
 End of G2Drv F.D. properties file   721 does not exist.
 End of G2Drv F.D. properties file   722 does not exist.
 End of G2Drv F.D. properties file   788 does not exist.
 R2 and R3 integrals will be kept in memory, NReq=   332743010.
 DD1Dir will call FoFMem   1 times, MxPair=       156
 NAB=    78 NAA=     0 NBB=     0.
 Discarding MO integrals.

 **********************************************************************

            Population analysis using the SCF Density.

 **********************************************************************

 Orbital symmetries:
       Occupied  (A') (A') (A') (A') (A') (A') (A') (A") (A') (A')
                 (A") (A')
       Virtual   (A') (A') (A") (A') (A') (A') (A') (A") (A') (A")
                 (A') (A') (A") (A') (A') (A') (A") (A') (A') (A")
                 (A") (A') (A') (A") (A') (A') (A') (A') (A") (A')
                 (A') (A") (A') (A') (A") (A") (A') (A') (A") (A')
                 (A') (A") (A') (A") (A') (A") (A') (A') (A') (A")
                 (A') (A") (A') (A') (A') (A") (A") (A') (A') (A')
                 (A") (A') (A') (A") (A') (A') (A") (A') (A') (A")
                 (A") (A") (A") (A') (A') (A') (A') (A') (A') (A")
                 (A') (A') (A") (A') (A") (A") (A') (A") (A') (A')
                 (A') (A") (A') (A") (A') (A") (A') (A') (A') (A")
                 (A') (A") (A') (A') (A") (A") (A') (A') (A") (A')
                 (A') (A') (A") (A') (A") (A') (A') (A") (A') (A')
                 (A') (A') (A") (A') (A") (A') (A") (A") (A') (A')
                 (A") (A') (A") (A') (A') (A') (A") (A") (A") (A')
                 (A") (A') (A') (A') (A') (A') (A') (A') (A')
 The electronic state is 1-A'.
 Alpha  occ. eigenvalues --  -20.28938 -20.24489 -11.07998  -1.27543  -1.05674
 Alpha  occ. eigenvalues --   -0.54678  -0.47255  -0.40705  -0.40263  -0.19640
 Alpha  occ. eigenvalues --   -0.18101  -0.16439
 Alpha virt. eigenvalues --    0.14631   0.20974   0.21148   0.21759   0.28541
 Alpha virt. eigenvalues --    0.31557   0.32761   0.33183   0.37315   0.37646
 Alpha virt. eigenvalues --    0.39209   0.42276   0.43524   0.45843   0.50753
 Alpha virt. eigenvalues --    0.52208   0.53223   0.54462   0.59309   0.59733
 Alpha virt. eigenvalues --    0.62659   0.69441   0.70373   0.72383   0.78194
 Alpha virt. eigenvalues --    0.83383   0.92192   0.93429   0.95396   0.97900
 Alpha virt. eigenvalues --    1.01918   1.03176   1.04210   1.06163   1.09033
 Alpha virt. eigenvalues --    1.11085   1.11304   1.15025   1.15814   1.16521
 Alpha virt. eigenvalues --    1.22654   1.24209   1.24467   1.27932   1.28948
 Alpha virt. eigenvalues --    1.32487   1.37779   1.42569   1.44251   1.44524
 Alpha virt. eigenvalues --    1.49755   1.55980   1.56981   1.65124   1.66121
 Alpha virt. eigenvalues --    1.70724   1.80416   1.81761   1.86864   1.94168
 Alpha virt. eigenvalues --    1.96459   2.07011   2.11596   2.19076   2.23270
 Alpha virt. eigenvalues --    2.35301   2.45459   2.47063   2.48279   2.54484
 Alpha virt. eigenvalues --    2.60671   2.63917   2.64782   2.66204   2.68474
 Alpha virt. eigenvalues --    2.69162   2.75413   2.77752   2.84077   2.84821
 Alpha virt. eigenvalues --    2.89169   2.95066   2.96050   3.01639   3.02823
 Alpha virt. eigenvalues --    3.07782   3.17738   3.18225   3.22566   3.28611
 Alpha virt. eigenvalues --    3.30859   3.39952   3.45119   3.60911   3.66722
 Alpha virt. eigenvalues --    3.85424   3.92096   3.92730   4.19530   4.21634
 Alpha virt. eigenvalues --    4.28556   4.31226   4.34388   4.35759   4.48606
 Alpha virt. eigenvalues --    4.63805   4.66503   4.75915   4.92121   4.97320
 Alpha virt. eigenvalues --    5.02870   5.30254   5.32650   5.39238   5.44898
 Alpha virt. eigenvalues --    5.66281   5.70121   5.80756   6.07160   6.27867
 Alpha virt. eigenvalues --    6.53435   6.57154   6.85822   6.86720   6.90875
 Alpha virt. eigenvalues --    6.91274   7.14453   7.17429   7.18797   7.29135
 Alpha virt. eigenvalues --    7.43728   7.45128   7.49330   7.51129   7.55133
 Alpha virt. eigenvalues --    7.60765   7.61075   7.72257   7.79224   7.87513
 Alpha virt. eigenvalues --    7.87733   7.98270   8.15707   8.19080   8.32479
 Alpha virt. eigenvalues --    8.75973  14.71892  17.25229  20.15194
          Condensed to atoms (all electrons):
               1          2          3          4
     1  C    4.865891   0.535158   0.394752   0.254208
     2  O    0.535158   8.181047  -0.150843  -0.078516
     3  O    0.394752  -0.150843   8.596481  -0.048683
     4  H    0.254208  -0.078516  -0.048683   0.544428
 Mulliken charges:
               1
     1  C   -0.050010
     2  O   -0.486847
     3  O   -0.791707
     4  H    0.328563
 Sum of Mulliken charges =  -1.00000
 Mulliken charges with hydrogens summed into heavy atoms:
               1
     1  C    0.278554
     2  O   -0.486847
     3  O   -0.791707
 APT charges:
               1
     1  C    1.516804
     2  O   -1.065874
     3  O   -1.138058
     4  H   -0.312872
 Sum of APT charges =  -1.00000
 APT charges with hydrogens summed into heavy atoms:
               1
     1  C    1.203932
     2  O   -1.065874
     3  O   -1.138058
 Electronic spatial extent (au):  <R**2>=            124.0092
 Charge=             -1.0000 electrons
 Dipole moment (field-independent basis, Debye):
    X=              1.3627    Y=              1.6190    Z=              0.0000  Tot=              2.1162
 Quadrupole moment (field-independent basis, Debye-Ang):
   XX=            -27.4107   YY=            -21.4218   ZZ=            -18.3998
   XY=             -1.9454   XZ=              0.0000   YZ=              0.0000
 Traceless Quadrupole moment (field-independent basis, Debye-Ang):
   XX=             -5.0000   YY=              0.9890   ZZ=              4.0110
   XY=             -1.9454   XZ=              0.0000   YZ=              0.0000
 Octapole moment (field-independent basis, Debye-Ang**2):
  XXX=              4.2675  YYY=             -2.1642  ZZZ=              0.0000  XYY=              2.4159
  XXY=              0.9861  XXZ=              0.0000  XZZ=              1.6437  YZZ=             -0.1272
  YYZ=              0.0000  XYZ=              0.0000
 Hexadecapole moment (field-independent basis, Debye-Ang**3):
 XXXX=           -111.6594 YYYY=            -53.5655 ZZZZ=            -19.0512 XXXY=            -11.5332
 XXXZ=              0.0000 YYYX=             -9.2332 YYYZ=              0.0000 ZZZX=              0.0000
 ZZZY=              0.0000 XXYY=            -25.9995 XXZZ=            -20.6839 YYZZ=            -11.5598
 XXYZ=              0.0000 YYXZ=              0.0000 ZZXY=             -3.3801
 N-N= 6.777614510904D+01 E-N=-5.884301882581D+02  KE= 1.890885668323D+02
 Symmetry A'   KE= 1.812482019761D+02
 Symmetry A"   KE= 7.840364856226D+00
  Exact polarizability:  36.152   0.909  39.682   0.000   0.000  23.564
 Approx polarizability:  23.529   0.439  24.072   0.000   0.000  17.771
 Calling FoFJK, ICntrl=  10100127 FMM=F ISym2X=1 I1Cent= 0 IOpClX= 0 NMat=1 NMatS=1 NMatT=0.
 ***** Axes restored to original set *****
 -------------------------------------------------------------------
 Center     Atomic                   Forces (Hartrees/Bohr)
 Number     Number              X              Y              Z
 -------------------------------------------------------------------
      1        6          -0.009695175    0.000000000   -0.450348582
      2        8          -0.000860011    0.000000000    0.510107206
      3        8           0.023355081    0.000000000   -0.037734168
      4        1          -0.012799894    0.000000000   -0.022024457
 -------------------------------------------------------------------
 Cartesian Forces:  Max     0.510107206 RMS     0.197005961
 -----------------------------------------------------------------------------------------------
                       Internal Coordinate Forces (Hartree/Bohr or radian)
  Cent   Atom   N1       Length/X         N2         Alpha/Y        N3         Beta/Z          J
 -----------------------------------------------------------------------------------------------
      1  C 
      2  O        1   0.510107(     1)
      3  O        1   0.042190(     2)      2   0.032719(     4)
      4  H        1   0.020886(     3)      2   0.031013(     5)      3   0.000000(     6)     0
 -----------------------------------------------------------------------------------------------
 Internal  Forces:  Max     0.510107206 RMS     0.209943597

 GradGradGradGradGradGradGradGradGradGradGradGradGradGradGradGradGradGrad
 Berny optimization.
 Search for a local minimum.
 Step number   1 out of a maximum of   20
 All quantities printed in internal units (Hartrees-Bohrs-Radians)
 Second derivative matrix not updated -- analytic derivatives used.
 The second derivative matrix:
                          R1        R2        A1        A2         R
           R1           0.66442
           R2           0.04000   0.26160
           A1           0.05247  -0.05956   0.56655
           A2          -0.06510   0.01773   0.15045   0.35895
           R            0.13479   0.07130   0.10272   0.09176   2.29443
 ITU=  0
     Eigenvalues ---    0.20801   0.30923   0.64660   0.687681000.00000
 RFO step:  Lambda=-7.78459886D-03 EMin= 2.08009556D-01
 Linear search not attempted -- first point.
 Variable       Old X    -DE/DX   Delta X   Delta X   Delta X     New X
                                 (Linear)    (Quad)   (Total)
    R1        2.37778   0.04219   0.00000   0.06288   0.06288   2.44066
    R2        2.12642   0.02089   0.00000   0.07171   0.07171   2.19813
    A1        2.27209   0.03272   0.00000   0.03865   0.03865   2.31074
    A2        2.00555   0.03101   0.00000   0.07640   0.07640   2.08195
    R         1.98421   0.51011   0.00000   0.00000   0.00000   1.98421
         Item               Value     Threshold  Converged?
 Maximum Force            0.042190     0.000450     NO 
 RMS     Force            0.032590     0.000300     NO 
 Maximum Displacement     0.076405     0.001800     NO 
 RMS     Displacement     0.057319     0.001200     NO 
 Predicted change in Energy=-3.956240D-03
 GradGradGradGradGradGradGradGradGradGradGradGradGradGradGradGradGradGrad

 ---------------------------------------------------------------------------------------------------
                            Z-MATRIX (ANGSTROMS AND DEGREES)
   CD    Cent   Atom    N1       Length/X        N2       Alpha/Y        N3        Beta/Z          J
 ---------------------------------------------------------------------------------------------------
      1      1  C 
      2      2  O        1   1.050000(     1)
      3      3  O        1   1.291544(     2)      2  132.395(     4)
      4      4  H        1   1.163198(     3)      2  119.287(     5)      3  180.000(     6)      0
 ---------------------------------------------------------------------------------------------------
                         Z-Matrix orientation:                         
 ---------------------------------------------------------------------
 Center     Atomic      Atomic             Coordinates (Angstroms)
 Number     Number       Type             X           Y           Z
 ---------------------------------------------------------------------
      1          6           0        0.000000    0.000000    0.000000
      2          8           0        0.000000    0.000000    1.050000
      3          8           0        0.953817    0.000000   -0.870816
      4          1           0       -1.014518    0.000000   -0.569020
 ---------------------------------------------------------------------
                    Distance matrix (angstroms):
                    1          2          3          4
     1  C    0.000000
     2  O    1.050000   0.000000
     3  O    1.291544   2.144598   0.000000
     4  H    1.163198   1.910621   1.991337   0.000000
 Stoichiometry    CHO2(1-)
 Framework group  CS[SG(CHO2)]
 Deg. of freedom     5
 Full point group                 CS      NOp   2
 Largest Abelian subgroup         CS      NOp   2
 Largest concise Abelian subgroup C1      NOp   1
                         Standard orientation:                         
 ---------------------------------------------------------------------
 Center     Atomic      Atomic             Coordinates (Angstroms)
 Number     Number       Type             X           Y           Z
 ---------------------------------------------------------------------
      1          6           0        0.000000    0.290098    0.000000
      2          8           0        1.041150    0.154060    0.000000
      3          8           0       -0.987052   -0.542857    0.000000
      4          1           0       -0.432783    1.369787    0.000000
 ---------------------------------------------------------------------
 Rotational constants (GHZ):         122.8697619          13.6786640          12.3084113
 Standard basis: Aug-CC-pVTZ (5D, 7F)
 There are   129 symmetry adapted cartesian basis functions of A'  symmetry.
 There are    61 symmetry adapted cartesian basis functions of A"  symmetry.
 There are   106 symmetry adapted basis functions of A'  symmetry.
 There are    55 symmetry adapted basis functions of A"  symmetry.
   161 basis functions,   243 primitive gaussians,   190 cartesian basis functions
    12 alpha electrons       12 beta electrons
       nuclear repulsion energy        66.7209111332 Hartrees.
 NAtoms=    4 NActive=    4 NUniq=    4 SFac= 1.00D+00 NAtFMM=   60 NAOKFM=F Big=F
 Integral buffers will be    131072 words long.
 Raffenetti 1 integral format.
 Two-electron integral symmetry is turned on.
 One-electron integrals computed using PRISM.
 NBasis=   161 RedAO= T EigKep=  1.00D-04  NBF=   106    55
 NBsUse=   161 1.00D-06 EigRej= -1.00D+00 NBFU=   106    55
 Initial guess from the checkpoint file:  "C:\Users\Garrett\Downloads\NanoclusterOutput\Gau-7344.chk"
 B after Tr=     0.000000    0.000000    0.000000
         Rot=    0.999387    0.000000    0.000000   -0.035014 Ang=  -4.01 deg.
 Initial guess orbital symmetries:
       Occupied  (A') (A') (A') (A') (A') (A') (A') (A") (A') (A')
                 (A") (A')
       Virtual   (A') (A') (A") (A') (A') (A') (A') (A") (A') (A")
                 (A') (A') (A") (A') (A') (A') (A") (A') (A') (A")
                 (A") (A') (A') (A") (A') (A') (A') (A') (A") (A')
                 (A') (A") (A') (A') (A") (A") (A') (A') (A") (A')
                 (A') (A") (A') (A") (A') (A") (A') (A') (A') (A")
                 (A') (A") (A') (A') (A') (A") (A") (A') (A') (A')
                 (A") (A') (A') (A") (A') (A') (A") (A') (A') (A")
                 (A") (A") (A") (A') (A') (A') (A') (A') (A') (A")
                 (A') (A') (A") (A') (A") (A") (A') (A") (A') (A')
                 (A') (A") (A') (A") (A') (A") (A') (A') (A') (A")
                 (A') (A") (A') (A') (A") (A") (A') (A') (A") (A')
                 (A') (A') (A") (A') (A") (A') (A') (A") (A') (A')
                 (A') (A') (A") (A') (A") (A') (A") (A") (A') (A')
                 (A") (A') (A") (A') (A') (A') (A") (A") (A") (A')
                 (A") (A') (A') (A') (A') (A') (A') (A') (A')
 ExpMin= 2.53D-02 ExpMax= 1.53D+04 ExpMxC= 5.22D+02 IAcc=3 IRadAn=         5 AccDes= 0.00D+00
 Harris functional with IExCor=  205 and IRadAn=       5 diagonalized for initial guess.
 HarFok:  IExCor=  205 AccDes= 0.00D+00 IRadAn=         5 IDoV= 1 UseB2=F ITyADJ=14
 ICtDFT=  3500011 ScaDFX=  1.000000  1.000000  1.000000  1.000000
 FoFCou: FMM=F IPFlag=           0 FMFlag=      100000 FMFlg1=           0
         NFxFlg=           0 DoJE=T BraDBF=F KetDBF=T FulRan=T
         wScrn=  0.000000 ICntrl=       500 IOpCl=  0 I1Cent=   200000004 NGrid=           0
         NMat0=    1 NMatS0=      1 NMatT0=    0 NMatD0=    1 NMtDS0=    0 NMtDT0=    0
 Petite list used in FoFCou.
 Keep R1 ints in memory in symmetry-blocked form, NReq=128070129.
 Requested convergence on RMS density matrix=1.00D-08 within 128 cycles.
 Requested convergence on MAX density matrix=1.00D-06.
 Requested convergence on             energy=1.00D-06.
 No special actions if energy rises.
 SCF Done:  E(RHF) =  -188.213120807     A.U. after   11 cycles
            NFock= 11  Conv=0.68D-08     -V/T= 1.9963
 ExpMin= 2.53D-02 ExpMax= 1.53D+04 ExpMxC= 5.22D+02 IAcc=3 IRadAn=         5 AccDes= 0.00D+00
 HarFok:  IExCor=  205 AccDes= 0.00D+00 IRadAn=         5 IDoV=-2 UseB2=F ITyADJ=14
 ICtDFT= 12500011 ScaDFX=  1.000000  1.000000  1.000000  1.000000
 Range of M.O.s used for correlation:     4   161
 NBasis=   161 NAE=    12 NBE=    12 NFC=     3 NFV=     0
 NROrb=    158 NOA=     9 NOB=     9 NVA=   149 NVB=   149

 **** Warning!!: The largest alpha MO coefficient is  0.33460271D+02

 Fully direct method using O(ONN) memory.
 JobTyp=1 Pass  1:  I=   4 to  12 NPSUse=  2 ParTrn=T ParDer=T DoDerP=T.
 Spin components of T(2) and E(2):
     alpha-alpha T2 =       0.2287436637D-01 E2=     -0.8432284617D-01
     alpha-beta  T2 =       0.1201413628D+00 E2=     -0.4742225837D+00
     beta-beta   T2 =       0.2287436637D-01 E2=     -0.8432284617D-01
 ANorm=    0.1079763907D+01
 E2 =    -0.6428682761D+00 EUMP2 =    -0.18885598908303D+03
          IDoAtm=1111
          Differentiating once with respect to electric field.
                with respect to dipole field.
          Differentiating once with respect to nuclear coordinates.
 Keep R1 ints in memory in symmetry-blocked form, NReq=128071153.
          There are     1 degrees of freedom in the 1st order CPHF.  IDoFFX=0 NUNeed=     1.
 LinEq1:  Iter=  0 NonCon=     1 RMS=5.86D-03 Max=7.71D-02 NDo=     1
 AX will form     1 AO Fock derivatives at one time.
 LinEq1:  Iter=  1 NonCon=     1 RMS=1.31D-03 Max=1.19D-02 NDo=     1
 LinEq1:  Iter=  2 NonCon=     1 RMS=5.17D-04 Max=7.13D-03 NDo=     1
 LinEq1:  Iter=  3 NonCon=     1 RMS=1.99D-04 Max=1.90D-03 NDo=     1
 LinEq1:  Iter=  4 NonCon=     1 RMS=8.13D-05 Max=1.32D-03 NDo=     1
 LinEq1:  Iter=  5 NonCon=     1 RMS=2.54D-05 Max=1.90D-04 NDo=     1
 LinEq1:  Iter=  6 NonCon=     1 RMS=1.11D-05 Max=1.22D-04 NDo=     1
 LinEq1:  Iter=  7 NonCon=     1 RMS=2.39D-06 Max=2.31D-05 NDo=     1
 LinEq1:  Iter=  8 NonCon=     1 RMS=5.03D-07 Max=5.10D-06 NDo=     1
 LinEq1:  Iter=  9 NonCon=     1 RMS=9.75D-08 Max=9.02D-07 NDo=     1
 LinEq1:  Iter= 10 NonCon=     1 RMS=1.58D-08 Max=1.34D-07 NDo=     1
 LinEq1:  Iter= 11 NonCon=     1 RMS=2.21D-09 Max=2.02D-08 NDo=     1
 LinEq1:  Iter= 12 NonCon=     1 RMS=3.08D-10 Max=2.48D-09 NDo=     1
 LinEq1:  Iter= 13 NonCon=     0 RMS=4.38D-11 Max=5.46D-10 NDo=     1
 Linear equations converged to 1.000D-10 1.000D-09 after    13 iterations.
 End of Minotr F.D. properties file   721 does not exist.
 End of Minotr F.D. properties file   722 does not exist.
 End of Minotr F.D. properties file   788 does not exist.
 Calling FoFJK, ICntrl=  10002127 FMM=F ISym2X=1 I1Cent= 0 IOpClX= 0 NMat=1 NMatS=1 NMatT=0.
 ***** Axes restored to original set *****
 -------------------------------------------------------------------
 Center     Atomic                   Forces (Hartrees/Bohr)
 Number     Number              X              Y              Z
 -------------------------------------------------------------------
      1        6          -0.001764526    0.000000000   -0.481411115
      2        8           0.000108525    0.000000000    0.486998756
      3        8           0.003806500    0.000000000   -0.003884438
      4        1          -0.002150499    0.000000000   -0.001703203
 -------------------------------------------------------------------
 Cartesian Forces:  Max     0.486998756 RMS     0.197687607
 -----------------------------------------------------------------------------------------------
                       Internal Coordinate Forces (Hartree/Bohr or radian)
  Cent   Atom   N1       Length/X         N2         Alpha/Y        N3         Beta/Z          J
 -----------------------------------------------------------------------------------------------
      1  C 
      2  O        1   0.486999(     1)
      3  O        1   0.005430(     2)      2   0.000738(     4)
      4  H        1   0.002709(     3)      2   0.000953(     5)      3   0.000000(     6)     0
 -----------------------------------------------------------------------------------------------
 Internal  Forces:  Max     0.486998756 RMS     0.198832453

 GradGradGradGradGradGradGradGradGradGradGradGradGradGradGradGradGradGrad
 Berny optimization.
 Search for a local minimum.
 Step number   2 out of a maximum of   20
 All quantities printed in internal units (Hartrees-Bohrs-Radians)
 Update second derivatives using D2CorN and points    1    2
 DE= -4.13D-03 DEPred=-3.96D-03 R= 1.04D+00
 TightC=F SS=  1.41D+00  RLast= 1.28D-01 DXNew= 5.0454D-01 3.8451D-01
 Trust test= 1.04D+00 RLast= 1.28D-01 DXMaxT set to 3.85D-01
 The second derivative matrix:
                          R1        R2        A1        A2         R
           R1           0.64551
           R2           0.02510   0.25221
           A1           0.04582  -0.06305   0.56552
           A2          -0.07728   0.01195   0.14901   0.35728
           R            0.13200   0.06811   0.10100   0.08836   2.29443
 ITU=  1  0
     Eigenvalues ---    0.20734   0.29663   0.64919   0.667371000.00000
 RFO step:  Lambda=-2.23283958D-05 EMin= 2.07340070D-01
 Quartic linear search produced a step of  0.09636.
 Variable       Old X    -DE/DX   Delta X   Delta X   Delta X     New X
                                 (Linear)    (Quad)   (Total)
    R1        2.44066   0.00543   0.00606   0.00293   0.00899   2.44965
    R2        2.19813   0.00271   0.00691   0.00381   0.01072   2.20884
    A1        2.31074   0.00074   0.00372  -0.00294   0.00078   2.31152
    A2        2.08195   0.00095   0.00736  -0.00303   0.00433   2.08628
    R         1.98421   0.48700   0.00000   0.00000   0.00000   1.98421
         Item               Value     Threshold  Converged?
 Maximum Force            0.005430     0.000450     NO 
 RMS     Force            0.003093     0.000300     NO 
 Maximum Displacement     0.010717     0.001800     NO 
 RMS     Displacement     0.006558     0.001200     NO 
 Predicted change in Energy=-3.819721D-05
 GradGradGradGradGradGradGradGradGradGradGradGradGradGradGradGradGradGrad

 ---------------------------------------------------------------------------------------------------
                            Z-MATRIX (ANGSTROMS AND DEGREES)
   CD    Cent   Atom    N1       Length/X        N2       Alpha/Y        N3        Beta/Z          J
 ---------------------------------------------------------------------------------------------------
      1      1  C 
      2      2  O        1   1.050000(     1)
      3      3  O        1   1.296301(     2)      2  132.440(     4)
      4      4  H        1   1.168870(     3)      2  119.535(     5)      3  180.000(     6)      0
 ---------------------------------------------------------------------------------------------------
                         Z-Matrix orientation:                         
 ---------------------------------------------------------------------
 Center     Atomic      Atomic             Coordinates (Angstroms)
 Number     Number       Type             X           Y           Z
 ---------------------------------------------------------------------
      1          6           0        0.000000    0.000000    0.000000
      2          8           0        0.000000    0.000000    1.050000
      3          8           0        0.956647    0.000000   -0.874769
      4          1           0       -1.016979    0.000000   -0.576203
 ---------------------------------------------------------------------
                    Distance matrix (angstroms):
                    1          2          3          4
     1  C    0.000000
     2  O    1.050000   0.000000
     3  O    1.296301   2.149398   0.000000
     4  H    1.168870   1.918015   1.996082   0.000000
 Stoichiometry    CHO2(1-)
 Framework group  CS[SG(CHO2)]
 Deg. of freedom     5
 Full point group                 CS      NOp   2
 Largest Abelian subgroup         CS      NOp   2
 Largest concise Abelian subgroup C1      NOp   1
                         Standard orientation:                         
 ---------------------------------------------------------------------
 Center     Atomic      Atomic             Coordinates (Angstroms)
 Number     Number       Type             X           Y           Z
 ---------------------------------------------------------------------
      1          6           0        0.000000    0.290755    0.000000
      2          8           0        1.041967    0.161119    0.000000
      3          8           0       -0.986187   -0.550571    0.000000
      4          1           0       -0.446235    1.371093    0.000000
 ---------------------------------------------------------------------
 Rotational constants (GHZ):         122.2933748          13.6157246          12.2516661
 Standard basis: Aug-CC-pVTZ (5D, 7F)
 There are   129 symmetry adapted cartesian basis functions of A'  symmetry.
 There are    61 symmetry adapted cartesian basis functions of A"  symmetry.
 There are   106 symmetry adapted basis functions of A'  symmetry.
 There are    55 symmetry adapted basis functions of A"  symmetry.
   161 basis functions,   243 primitive gaussians,   190 cartesian basis functions
    12 alpha electrons       12 beta electrons
       nuclear repulsion energy        66.5866388553 Hartrees.
 NAtoms=    4 NActive=    4 NUniq=    4 SFac= 1.00D+00 NAtFMM=   60 NAOKFM=F Big=F
 Integral buffers will be    131072 words long.
 Raffenetti 1 integral format.
 Two-electron integral symmetry is turned on.
 One-electron integrals computed using PRISM.
 NBasis=   161 RedAO= T EigKep=  1.02D-04  NBF=   106    55
 NBsUse=   161 1.00D-06 EigRej= -1.00D+00 NBFU=   106    55
 Initial guess from the checkpoint file:  "C:\Users\Garrett\Downloads\NanoclusterOutput\Gau-7344.chk"
 B after Tr=     0.000000    0.000000    0.000000
         Rot=    0.999995    0.000000    0.000000   -0.003243 Ang=  -0.37 deg.
 Initial guess orbital symmetries:
       Occupied  (A') (A') (A') (A') (A') (A') (A') (A") (A') (A')
                 (A") (A')
       Virtual   (A') (A') (A") (A') (A') (A') (A') (A") (A') (A")
                 (A') (A') (A") (A') (A') (A") (A') (A') (A") (A')
                 (A") (A') (A') (A") (A') (A') (A') (A') (A") (A')
                 (A') (A") (A') (A') (A") (A') (A") (A') (A") (A')
                 (A') (A') (A") (A") (A') (A") (A') (A') (A') (A")
                 (A') (A") (A') (A') (A') (A") (A") (A') (A') (A')
                 (A") (A') (A') (A") (A') (A') (A") (A') (A') (A")
                 (A") (A") (A") (A') (A') (A') (A') (A') (A') (A")
                 (A') (A") (A') (A') (A") (A") (A') (A") (A') (A')
                 (A') (A") (A') (A") (A') (A") (A') (A') (A') (A")
                 (A') (A") (A') (A') (A") (A") (A') (A') (A') (A")
                 (A') (A") (A') (A') (A") (A') (A') (A") (A') (A')
                 (A') (A') (A") (A') (A") (A') (A") (A") (A') (A')
                 (A") (A') (A") (A') (A') (A") (A') (A") (A") (A')
                 (A") (A') (A') (A') (A') (A') (A') (A') (A')
 Keep R1 ints in memory in symmetry-blocked form, NReq=128070129.
 Requested convergence on RMS density matrix=1.00D-08 within 128 cycles.
 Requested convergence on MAX density matrix=1.00D-06.
 Requested convergence on             energy=1.00D-06.
 No special actions if energy rises.
 SCF Done:  E(RHF) =  -188.212769860     A.U. after   10 cycles
            NFock= 10  Conv=0.43D-08     -V/T= 1.9964
 ExpMin= 2.53D-02 ExpMax= 1.53D+04 ExpMxC= 5.22D+02 IAcc=3 IRadAn=         5 AccDes= 0.00D+00
 HarFok:  IExCor=  205 AccDes= 0.00D+00 IRadAn=         5 IDoV=-2 UseB2=F ITyADJ=14
 ICtDFT= 12500011 ScaDFX=  1.000000  1.000000  1.000000  1.000000
 Range of M.O.s used for correlation:     4   161
 NBasis=   161 NAE=    12 NBE=    12 NFC=     3 NFV=     0
 NROrb=    158 NOA=     9 NOB=     9 NVA=   149 NVB=   149

 **** Warning!!: The largest alpha MO coefficient is  0.32883140D+02

 Fully direct method using O(ONN) memory.
 JobTyp=1 Pass  1:  I=   4 to  12 NPSUse=  2 ParTrn=T ParDer=T DoDerP=T.
 Spin components of T(2) and E(2):
     alpha-alpha T2 =       0.2293529505D-01 E2=     -0.8436803714D-01
     alpha-beta  T2 =       0.1204884938D+00 E2=     -0.4745271183D+00
     beta-beta   T2 =       0.2293529505D-01 E2=     -0.8436803714D-01
 ANorm=    0.1079981057D+01
 E2 =    -0.6432631926D+00 EUMP2 =    -0.18885603305259D+03
          IDoAtm=1111
          Differentiating once with respect to electric field.
                with respect to dipole field.
          Differentiating once with respect to nuclear coordinates.
 Keep R1 ints in memory in symmetry-blocked form, NReq=128071153.
          There are     1 degrees of freedom in the 1st order CPHF.  IDoFFX=0 NUNeed=     1.
 LinEq1:  Iter=  0 NonCon=     1 RMS=5.89D-03 Max=7.69D-02 NDo=     1
 AX will form     1 AO Fock derivatives at one time.
 LinEq1:  Iter=  1 NonCon=     1 RMS=1.32D-03 Max=1.23D-02 NDo=     1
 LinEq1:  Iter=  2 NonCon=     1 RMS=5.25D-04 Max=7.28D-03 NDo=     1
 LinEq1:  Iter=  3 NonCon=     1 RMS=2.03D-04 Max=1.95D-03 NDo=     1
 LinEq1:  Iter=  4 NonCon=     1 RMS=8.31D-05 Max=1.34D-03 NDo=     1
 LinEq1:  Iter=  5 NonCon=     1 RMS=2.60D-05 Max=1.95D-04 NDo=     1
 LinEq1:  Iter=  6 NonCon=     1 RMS=1.14D-05 Max=1.22D-04 NDo=     1
 LinEq1:  Iter=  7 NonCon=     1 RMS=2.44D-06 Max=2.37D-05 NDo=     1
 LinEq1:  Iter=  8 NonCon=     1 RMS=5.13D-07 Max=5.14D-06 NDo=     1
 LinEq1:  Iter=  9 NonCon=     1 RMS=9.98D-08 Max=9.46D-07 NDo=     1
 LinEq1:  Iter= 10 NonCon=     1 RMS=1.61D-08 Max=1.34D-07 NDo=     1
 LinEq1:  Iter= 11 NonCon=     1 RMS=2.28D-09 Max=2.08D-08 NDo=     1
 LinEq1:  Iter= 12 NonCon=     1 RMS=3.18D-10 Max=2.63D-09 NDo=     1
 LinEq1:  Iter= 13 NonCon=     0 RMS=4.52D-11 Max=5.35D-10 NDo=     1
 Linear equations converged to 1.000D-10 1.000D-09 after    13 iterations.
 End of Minotr F.D. properties file   721 does not exist.
 End of Minotr F.D. properties file   722 does not exist.
 End of Minotr F.D. properties file   788 does not exist.
 Calling FoFJK, ICntrl=  10002127 FMM=F ISym2X=1 I1Cent= 0 IOpClX= 0 NMat=1 NMatS=1 NMatT=0.
 ***** Axes restored to original set *****
 -------------------------------------------------------------------
 Center     Atomic                   Forces (Hartrees/Bohr)
 Number     Number              X              Y              Z
 -------------------------------------------------------------------
      1        6          -0.000184151    0.000000000   -0.484433395
      2        8          -0.000071462    0.000000000    0.484800367
      3        8           0.000423000    0.000000000   -0.000365726
      4        1          -0.000167387    0.000000000   -0.000001246
 -------------------------------------------------------------------
 Cartesian Forces:  Max     0.484800367 RMS     0.197844107
 -----------------------------------------------------------------------------------------------
                       Internal Coordinate Forces (Hartree/Bohr or radian)
  Cent   Atom   N1       Length/X         N2         Alpha/Y        N3         Beta/Z          J
 -----------------------------------------------------------------------------------------------
      1  C 
      2  O        1   0.484800(     1)
      3  O        1   0.000559(     2)      2  -0.000038(     4)
      4  H        1   0.000146(     3)      2  -0.000180(     5)      3   0.000000(     6)     0
 -----------------------------------------------------------------------------------------------
 Internal  Forces:  Max     0.484800367 RMS     0.197919076

 GradGradGradGradGradGradGradGradGradGradGradGradGradGradGradGradGradGrad
 Berny optimization.
 Search for a local minimum.
 Step number   3 out of a maximum of   20
 All quantities printed in internal units (Hartrees-Bohrs-Radians)
 Update second derivatives using D2CorN and points    1    2    3
 DE= -4.40D-05 DEPred=-3.82D-05 R= 1.15D+00
 TightC=F SS=  1.41D+00  RLast= 1.47D-02 DXNew= 6.4666D-01 4.3990D-02
 Trust test= 1.15D+00 RLast= 1.47D-02 DXMaxT set to 3.85D-01
 The second derivative matrix:
                          R1        R2        A1        A2         R
           R1           0.60554
           R2          -0.00563   0.23535
           A1           0.04180  -0.06432   0.56602
           A2          -0.08722   0.01097   0.15033   0.36203
           R            0.12752   0.06285   0.09986   0.08516   2.29443
 ITU=  1  1  0
     Eigenvalues ---    0.20302   0.28084   0.63275   0.652341000.00000
 RFO step:  Lambda=-2.26930216D-07 EMin= 2.03019765D-01
 Quartic linear search produced a step of  0.07658.
 Variable       Old X    -DE/DX   Delta X   Delta X   Delta X     New X
                                 (Linear)    (Quad)   (Total)
    R1        2.44965   0.00056   0.00069   0.00022   0.00091   2.45056
    R2        2.20884   0.00015   0.00082  -0.00016   0.00066   2.20950
    A1        2.31152  -0.00004   0.00006  -0.00003   0.00003   2.31155
    A2        2.08628  -0.00018   0.00033  -0.00066  -0.00033   2.08595
    R         1.98421   0.48480   0.00000   0.00000   0.00000   1.98421
         Item               Value     Threshold  Converged?
 Maximum Force            0.000559     0.000450     NO 
 RMS     Force            0.000303     0.000300     NO 
 Maximum Displacement     0.000907     0.001800     YES
 RMS     Displacement     0.000522     0.001200     YES
 Predicted change in Energy=-3.226939D-07
 GradGradGradGradGradGradGradGradGradGradGradGradGradGradGradGradGradGrad

 ---------------------------------------------------------------------------------------------------
                            Z-MATRIX (ANGSTROMS AND DEGREES)
   CD    Cent   Atom    N1       Length/X        N2       Alpha/Y        N3        Beta/Z          J
 ---------------------------------------------------------------------------------------------------
      1      1  C 
      2      2  O        1   1.050000(     1)
      3      3  O        1   1.296781(     2)      2  132.442(     4)
      4      4  H        1   1.169217(     3)      2  119.516(     5)      3  180.000(     6)      0
 ---------------------------------------------------------------------------------------------------
                         Z-Matrix orientation:                         
 ---------------------------------------------------------------------
 Center     Atomic      Atomic             Coordinates (Angstroms)
 Number     Number       Type             X           Y           Z
 ---------------------------------------------------------------------
      1          6           0        0.000000    0.000000    0.000000
      2          8           0        0.000000    0.000000    1.050000
      3          8           0        0.956976    0.000000   -0.875121
      4          1           0       -1.017470    0.000000   -0.576040
 ---------------------------------------------------------------------
                    Distance matrix (angstroms):
                    1          2          3          4
     1  C    0.000000
     2  O    1.050000   0.000000
     3  O    1.296781   2.149859   0.000000
     4  H    1.169217   1.918137   1.996970   0.000000
 Stoichiometry    CHO2(1-)
 Framework group  CS[SG(CHO2)]
 Deg. of freedom     5
 Full point group                 CS      NOp   2
 Largest Abelian subgroup         CS      NOp   2
 Largest concise Abelian subgroup C1      NOp   1
                         Standard orientation:                         
 ---------------------------------------------------------------------
 Center     Atomic      Atomic             Coordinates (Angstroms)
 Number     Number       Type             X           Y           Z
 ---------------------------------------------------------------------
      1          6           0        0.000000    0.290833    0.000000
      2          8           0        1.042023    0.161648    0.000000
      3          8           0       -0.986213   -0.551203    0.000000
      4          1           0       -0.446480    1.371446    0.000000
 ---------------------------------------------------------------------
 Rotational constants (GHZ):         122.2443544          13.6096425          12.2462496
 Standard basis: Aug-CC-pVTZ (5D, 7F)
 There are   129 symmetry adapted cartesian basis functions of A'  symmetry.
 There are    61 symmetry adapted cartesian basis functions of A"  symmetry.
 There are   106 symmetry adapted basis functions of A'  symmetry.
 There are    55 symmetry adapted basis functions of A"  symmetry.
   161 basis functions,   243 primitive gaussians,   190 cartesian basis functions
    12 alpha electrons       12 beta electrons
       nuclear repulsion energy        66.5741109520 Hartrees.
 NAtoms=    4 NActive=    4 NUniq=    4 SFac= 1.00D+00 NAtFMM=   60 NAOKFM=F Big=F
 Integral buffers will be    131072 words long.
 Raffenetti 1 integral format.
 Two-electron integral symmetry is turned on.
 One-electron integrals computed using PRISM.
 NBasis=   161 RedAO= T EigKep=  1.02D-04  NBF=   106    55
 NBsUse=   161 1.00D-06 EigRej= -1.00D+00 NBFU=   106    55
 Initial guess from the checkpoint file:  "C:\Users\Garrett\Downloads\NanoclusterOutput\Gau-7344.chk"
 B after Tr=     0.000000    0.000000    0.000000
         Rot=    1.000000    0.000000    0.000000   -0.000216 Ang=  -0.02 deg.
 Initial guess orbital symmetries:
       Occupied  (A') (A') (A') (A') (A') (A') (A') (A") (A') (A')
                 (A") (A')
       Virtual   (A') (A') (A") (A') (A') (A') (A') (A") (A') (A")
                 (A') (A') (A") (A') (A') (A") (A') (A') (A") (A')
                 (A") (A') (A') (A") (A') (A') (A') (A') (A") (A')
                 (A') (A") (A') (A') (A") (A') (A") (A') (A") (A')
                 (A') (A') (A") (A") (A') (A") (A') (A') (A') (A")
                 (A') (A") (A') (A') (A') (A") (A") (A') (A') (A')
                 (A") (A') (A') (A") (A') (A') (A") (A') (A') (A")
                 (A") (A") (A") (A') (A') (A') (A') (A') (A') (A")
                 (A') (A") (A') (A') (A") (A") (A') (A') (A") (A')
                 (A') (A") (A') (A") (A') (A") (A') (A') (A') (A")
                 (A') (A") (A') (A') (A") (A") (A') (A') (A') (A")
                 (A') (A") (A') (A') (A") (A') (A') (A") (A') (A')
                 (A') (A') (A") (A') (A") (A') (A") (A") (A') (A')
                 (A") (A') (A") (A') (A') (A") (A') (A") (A") (A')
                 (A") (A') (A') (A') (A') (A') (A') (A') (A')
 Keep R1 ints in memory in symmetry-blocked form, NReq=128070129.
 Requested convergence on RMS density matrix=1.00D-08 within 128 cycles.
 Requested convergence on MAX density matrix=1.00D-06.
 Requested convergence on             energy=1.00D-06.
 No special actions if energy rises.
 SCF Done:  E(RHF) =  -188.212736794     A.U. after    7 cycles
            NFock=  7  Conv=0.94D-08     -V/T= 1.9964
 ExpMin= 2.53D-02 ExpMax= 1.53D+04 ExpMxC= 5.22D+02 IAcc=3 IRadAn=         5 AccDes= 0.00D+00
 HarFok:  IExCor=  205 AccDes= 0.00D+00 IRadAn=         5 IDoV=-2 UseB2=F ITyADJ=14
 ICtDFT= 12500011 ScaDFX=  1.000000  1.000000  1.000000  1.000000
 Range of M.O.s used for correlation:     4   161
 NBasis=   161 NAE=    12 NBE=    12 NFC=     3 NFV=     0
 NROrb=    158 NOA=     9 NOB=     9 NVA=   149 NVB=   149

 **** Warning!!: The largest alpha MO coefficient is  0.32872680D+02

 Fully direct method using O(ONN) memory.
 JobTyp=1 Pass  1:  I=   4 to  12 NPSUse=  2 ParTrn=T ParDer=T DoDerP=T.
 Spin components of T(2) and E(2):
     alpha-alpha T2 =       0.2294055686D-01 E2=     -0.8437153401D-01
     alpha-beta  T2 =       0.1205179709D+00 E2=     -0.4745535501D+00
     beta-beta   T2 =       0.2294055686D-01 E2=     -0.8437153401D-01
 ANorm=    0.1079999576D+01
 E2 =    -0.6432966181D+00 EUMP2 =    -0.18885603341258D+03
          IDoAtm=1111
          Differentiating once with respect to electric field.
                with respect to dipole field.
          Differentiating once with respect to nuclear coordinates.
 Keep R1 ints in memory in symmetry-blocked form, NReq=128071153.
          There are     1 degrees of freedom in the 1st order CPHF.  IDoFFX=0 NUNeed=     1.
 LinEq1:  Iter=  0 NonCon=     1 RMS=5.89D-03 Max=7.69D-02 NDo=     1
 AX will form     1 AO Fock derivatives at one time.
 LinEq1:  Iter=  1 NonCon=     1 RMS=1.33D-03 Max=1.24D-02 NDo=     1
 LinEq1:  Iter=  2 NonCon=     1 RMS=5.26D-04 Max=7.30D-03 NDo=     1
 LinEq1:  Iter=  3 NonCon=     1 RMS=2.04D-04 Max=1.95D-03 NDo=     1
 LinEq1:  Iter=  4 NonCon=     1 RMS=8.33D-05 Max=1.34D-03 NDo=     1
 LinEq1:  Iter=  5 NonCon=     1 RMS=2.61D-05 Max=1.96D-04 NDo=     1
 LinEq1:  Iter=  6 NonCon=     1 RMS=1.14D-05 Max=1.22D-04 NDo=     1
 LinEq1:  Iter=  7 NonCon=     1 RMS=2.44D-06 Max=2.37D-05 NDo=     1
 LinEq1:  Iter=  8 NonCon=     1 RMS=5.14D-07 Max=5.14D-06 NDo=     1
 LinEq1:  Iter=  9 NonCon=     1 RMS=1.00D-07 Max=9.49D-07 NDo=     1
 LinEq1:  Iter= 10 NonCon=     1 RMS=1.62D-08 Max=1.34D-07 NDo=     1
 LinEq1:  Iter= 11 NonCon=     1 RMS=2.28D-09 Max=2.08D-08 NDo=     1
 LinEq1:  Iter= 12 NonCon=     1 RMS=3.19D-10 Max=2.65D-09 NDo=     1
 LinEq1:  Iter= 13 NonCon=     0 RMS=4.54D-11 Max=5.33D-10 NDo=     1
 Linear equations converged to 1.000D-10 1.000D-09 after    13 iterations.
 End of Minotr F.D. properties file   721 does not exist.
 End of Minotr F.D. properties file   722 does not exist.
 End of Minotr F.D. properties file   788 does not exist.
 Calling FoFJK, ICntrl=  10002127 FMM=F ISym2X=1 I1Cent= 0 IOpClX= 0 NMat=1 NMatS=1 NMatT=0.
 ***** Axes restored to original set *****
 -------------------------------------------------------------------
 Center     Atomic                   Forces (Hartrees/Bohr)
 Number     Number              X              Y              Z
 -------------------------------------------------------------------
      1        6          -0.000021371    0.000000000   -0.484651718
      2        8          -0.000015027    0.000000000    0.484670056
      3        8           0.000025270    0.000000000   -0.000031905
      4        1           0.000011128    0.000000000    0.000013567
 -------------------------------------------------------------------
 Cartesian Forces:  Max     0.484670056 RMS     0.197861979
 -----------------------------------------------------------------------------------------------
                       Internal Coordinate Forces (Hartree/Bohr or radian)
  Cent   Atom   N1       Length/X         N2         Alpha/Y        N3         Beta/Z          J
 -----------------------------------------------------------------------------------------------
      1  C 
      2  O        1   0.484670(     1)
      3  O        1   0.000040(     2)      2   0.000016(     4)
      4  H        1  -0.000016(     3)      2  -0.000014(     5)      3   0.000000(     6)     0
 -----------------------------------------------------------------------------------------------
 Internal  Forces:  Max     0.484670056 RMS     0.197865723

 GradGradGradGradGradGradGradGradGradGradGradGradGradGradGradGradGradGrad
 Berny optimization.
 Search for a local minimum.
 Step number   4 out of a maximum of   20
 All quantities printed in internal units (Hartrees-Bohrs-Radians)
 Update second derivatives using D2CorN and points    1    2    4
 DE= -3.60D-07 DEPred=-3.23D-07 R= 1.12D+00
 Trust test= 1.12D+00 RLast= 1.17D-03 DXMaxT set to 3.85D-01
 The second derivative matrix:
                          R1        R2        A1        A2         R
           R1           0.59653
           R2          -0.00938   0.23865
           A1           0.04308  -0.06322   0.56673
           A2          -0.08363   0.01641   0.15163   0.36601
           R            0.12623   0.06136   0.09988   0.08482   2.29443
 ITU=  0  1  1  0
     Eigenvalues ---    0.20317   0.28712   0.62381   0.653831000.00000
 RFO step:  Lambda= 0.00000000D+00 EMin= 2.03167000D-01
 Quartic linear search produced a step of  0.04274.
 Variable       Old X    -DE/DX   Delta X   Delta X   Delta X     New X
                                 (Linear)    (Quad)   (Total)
    R1        2.45056   0.00004   0.00004   0.00002   0.00006   2.45062
    R2        2.20950  -0.00002   0.00003  -0.00010  -0.00007   2.20943
    A1        2.31155   0.00002   0.00000   0.00002   0.00003   2.31157
    A2        2.08595  -0.00001  -0.00001  -0.00002  -0.00003   2.08592
    R         1.98421   0.48467   0.00000   0.00000   0.00000   1.98421
         Item               Value     Threshold  Converged?
 Maximum Force            0.000040     0.000450     YES
 RMS     Force            0.000024     0.000300     YES
 Maximum Displacement     0.000069     0.001800     YES
 RMS     Displacement     0.000044     0.001200     YES
 Predicted change in Energy=-2.089938D-09
 Optimization completed.
    -- Stationary point found.
                       ----------------------------
                       !   Optimized Parameters   !
                       ! (Angstroms and Degrees)  !
 ----------------------                            ----------------------
 !      Name          Value   Derivative information (Atomic Units)     !
 ------------------------------------------------------------------------
 !       R1          1.2968   -DE/DX =    0.0                           !
 !       R2          1.1692   -DE/DX =    0.0                           !
 !       A1        132.4418   -DE/DX =    0.0                           !
 !       A2        119.5163   -DE/DX =    0.0                           !
 !        R          1.05     -DE/DX =    0.4847                        !
 ------------------------------------------------------------------------
 GradGradGradGradGradGradGradGradGradGradGradGradGradGradGradGradGradGrad

 ---------------------------------------------------------------------------------------------------
                            Z-MATRIX (ANGSTROMS AND DEGREES)
   CD    Cent   Atom    N1       Length/X        N2       Alpha/Y        N3        Beta/Z          J
 ---------------------------------------------------------------------------------------------------
      1      1  C 
      2      2  O        1   1.050000(     1)
      3      3  O        1   1.296781(     2)      2  132.442(     4)
      4      4  H        1   1.169217(     3)      2  119.516(     5)      3  180.000(     6)      0
 ---------------------------------------------------------------------------------------------------
                         Z-Matrix orientation:                         
 ---------------------------------------------------------------------
 Center     Atomic      Atomic             Coordinates (Angstroms)
 Number     Number       Type             X           Y           Z
 ---------------------------------------------------------------------
      1          6           0        0.000000    0.000000    0.000000
      2          8           0        0.000000    0.000000    1.050000
      3          8           0        0.956976    0.000000   -0.875121
      4          1           0       -1.017470    0.000000   -0.576040
 ---------------------------------------------------------------------
                    Distance matrix (angstroms):
                    1          2          3          4
     1  C    0.000000
     2  O    1.050000   0.000000
     3  O    1.296781   2.149859   0.000000
     4  H    1.169217   1.918137   1.996970   0.000000
 Stoichiometry    CHO2(1-)
 Framework group  CS[SG(CHO2)]
 Deg. of freedom     5
 Full point group                 CS      NOp   2
 Largest Abelian subgroup         CS      NOp   2
 Largest concise Abelian subgroup C1      NOp   1
                         Standard orientation:                         
 ---------------------------------------------------------------------
 Center     Atomic      Atomic             Coordinates (Angstroms)
 Number     Number       Type             X           Y           Z
 ---------------------------------------------------------------------
      1          6           0        0.000000    0.290833    0.000000
      2          8           0        1.042023    0.161648    0.000000
      3          8           0       -0.986213   -0.551203    0.000000
      4          1           0       -0.446480    1.371446    0.000000
 ---------------------------------------------------------------------
 Rotational constants (GHZ):         122.2443544          13.6096425          12.2462496

 **********************************************************************

            Population analysis using the SCF Density.

 **********************************************************************

 Orbital symmetries:
       Occupied  (A') (A') (A') (A') (A') (A') (A') (A") (A') (A')
                 (A") (A')
       Virtual   (A') (A') (A") (A') (A') (A') (A') (A") (A') (A")
                 (A') (A') (A") (A') (A') (A") (A') (A') (A") (A')
                 (A") (A') (A') (A") (A') (A') (A') (A') (A") (A')
                 (A') (A") (A') (A') (A") (A') (A") (A') (A") (A')
                 (A') (A') (A") (A") (A') (A") (A') (A') (A') (A")
                 (A') (A") (A') (A') (A') (A") (A") (A') (A') (A')
                 (A") (A') (A') (A") (A') (A') (A") (A') (A') (A")
                 (A") (A") (A") (A') (A') (A') (A') (A') (A') (A")
                 (A') (A") (A') (A') (A") (A") (A') (A') (A") (A')
                 (A') (A") (A') (A") (A') (A') (A") (A') (A') (A")
                 (A') (A") (A') (A') (A") (A") (A') (A') (A') (A")
                 (A') (A") (A') (A') (A") (A') (A') (A") (A') (A')
                 (A') (A') (A") (A') (A") (A') (A") (A") (A') (A')
                 (A") (A') (A") (A') (A') (A") (A') (A") (A") (A')
                 (A") (A') (A') (A') (A') (A') (A') (A') (A')
 The electronic state is 1-A'.
 Alpha  occ. eigenvalues --  -20.30661 -20.24834 -11.09526  -1.28335  -1.04201
 Alpha  occ. eigenvalues --   -0.54114  -0.47860  -0.41143  -0.40493  -0.20171
 Alpha  occ. eigenvalues --   -0.18057  -0.15757
 Alpha virt. eigenvalues --    0.14720   0.20871   0.21195   0.21757   0.28558
 Alpha virt. eigenvalues --    0.31576   0.32686   0.32895   0.37384   0.37935
 Alpha virt. eigenvalues --    0.39257   0.41905   0.43443   0.45832   0.49782
 Alpha virt. eigenvalues --    0.52595   0.52965   0.54308   0.58595   0.59005
 Alpha virt. eigenvalues --    0.62976   0.68803   0.70294   0.72304   0.78323
 Alpha virt. eigenvalues --    0.83099   0.89596   0.93508   0.94572   0.95647
 Alpha virt. eigenvalues --    1.01424   1.03115   1.03147   1.05389   1.07993
 Alpha virt. eigenvalues --    1.10816   1.11581   1.14841   1.15462   1.16940
 Alpha virt. eigenvalues --    1.22622   1.23050   1.23589   1.27118   1.27198
 Alpha virt. eigenvalues --    1.33032   1.36733   1.40138   1.43452   1.43668
 Alpha virt. eigenvalues --    1.49599   1.54793   1.59329   1.64179   1.66846
 Alpha virt. eigenvalues --    1.70571   1.79035   1.80959   1.87037   1.93390
 Alpha virt. eigenvalues --    1.93883   2.04378   2.09671   2.17174   2.17517
 Alpha virt. eigenvalues --    2.32942   2.43536   2.44623   2.48466   2.53756
 Alpha virt. eigenvalues --    2.59671   2.63061   2.63753   2.64980   2.67059
 Alpha virt. eigenvalues --    2.69313   2.76329   2.77554   2.82452   2.84289
 Alpha virt. eigenvalues --    2.87119   2.92200   2.96102   3.01479   3.02012
 Alpha virt. eigenvalues --    3.06839   3.16055   3.19294   3.19336   3.26401
 Alpha virt. eigenvalues --    3.35190   3.40609   3.43867   3.58719   3.70415
 Alpha virt. eigenvalues --    3.84750   3.84763   3.91648   4.13837   4.16124
 Alpha virt. eigenvalues --    4.23977   4.29782   4.31839   4.33155   4.47350
 Alpha virt. eigenvalues --    4.59822   4.62464   4.71346   4.86840   4.88001
 Alpha virt. eigenvalues --    4.97438   5.19939   5.26500   5.33615   5.37530
 Alpha virt. eigenvalues --    5.50594   5.63812   5.80446   5.98403   6.23459
 Alpha virt. eigenvalues --    6.53765   6.58846   6.84205   6.85015   6.90420
 Alpha virt. eigenvalues --    6.91140   7.13374   7.14093   7.15062   7.25402
 Alpha virt. eigenvalues --    7.41197   7.42715   7.48340   7.50667   7.52966
 Alpha virt. eigenvalues --    7.57936   7.59089   7.71826   7.76042   7.85079
 Alpha virt. eigenvalues --    7.87550   7.94020   8.12465   8.16497   8.30170
 Alpha virt. eigenvalues --    8.64249  14.08543  16.85556  19.93215
          Condensed to atoms (all electrons):
               1          2          3          4
     1  C    4.786831   0.552116   0.369271   0.304148
     2  O    0.552116   8.118277  -0.132790  -0.084793
     3  O    0.369271  -0.132790   8.621776  -0.065722
     4  H    0.304148  -0.084793  -0.065722   0.588654
 Mulliken charges:
               1
     1  C   -0.012366
     2  O   -0.452811
     3  O   -0.792535
     4  H    0.257713
 Sum of Mulliken charges =  -1.00000
 Mulliken charges with hydrogens summed into heavy atoms:
               1
     1  C    0.245346
     2  O   -0.452811
     3  O   -0.792535
 Electronic spatial extent (au):  <R**2>=            128.0942
 Charge=             -1.0000 electrons
 Dipole moment (field-independent basis, Debye):
    X=              1.5618    Y=              1.6514    Z=              0.0000  Tot=              2.2730
 Quadrupole moment (field-independent basis, Debye-Ang):
   XX=            -27.2844   YY=            -22.2172   ZZ=            -18.5851
   XY=             -2.4654   XZ=              0.0000   YZ=              0.0000
 Traceless Quadrupole moment (field-independent basis, Debye-Ang):
   XX=             -4.5889   YY=              0.4784   ZZ=              4.1105
   XY=             -2.4654   XZ=              0.0000   YZ=              0.0000
 Octapole moment (field-independent basis, Debye-Ang**2):
  XXX=              4.8900  YYY=             -2.0578  ZZZ=              0.0000  XYY=              3.1045
  XXY=              1.0087  XXZ=              0.0000  XZZ=              1.9792  YZZ=             -0.0448
  YYZ=              0.0000  XYZ=              0.0000
 Hexadecapole moment (field-independent basis, Debye-Ang**3):
 XXXX=           -112.3864 YYYY=            -59.7138 ZZZZ=            -19.6071 XXXY=            -14.2577
 XXXZ=              0.0000 YYYX=            -11.3868 YYYZ=              0.0000 ZZZX=              0.0000
 ZZZY=              0.0000 XXYY=            -27.4881 XXZZ=            -20.9641 YYZZ=            -12.6239
 XXYZ=              0.0000 YYXZ=              0.0000 ZZXY=             -4.1193
 N-N= 6.657411095204D+01 E-N=-5.857546268521D+02  KE= 1.888839905352D+02
 Symmetry A'   KE= 1.810512325791D+02
 Symmetry A"   KE= 7.832757956112D+00
 1|1|UNPC-DESKTOP-F4NP0R6|POpt|RMP2-FC|Aug-CC-pVTZ|C1H1O2(1-)|GARRETT|2
 3-Jul-2018|1||# MP2 Aug-cc-pvTZ opt=(noeigen,calcfc,z-matrix)||Formate
 ||-1,1|C|O,1,R|O,1,R1,2,A1|H,1,R2,2,A2,3,180.,0||R1=1.2967808|R2=1.169
 21675|A1=132.44180447|A2=119.51631633|R=1.05||Version=EM64W-G16RevB.01
 |State=1-A'|HF=-188.2127368|MP2=-188.8560334|RMSD=9.422e-009|RMSF=1.97
 9e-001|Dipole=-0.6039613,0.,0.5330174|PG=CS [SG(C1H1O2)]||@


 BREAD HAS TO MOLD IN ORDER TO GET PENICILLIN.
          -- JERRY BOATZ
 Job cpu time:       0 days  0 hours 27 minutes 59.0 seconds.
 Elapsed time:       0 days  0 hours 27 minutes 36.5 seconds.
 File lengths (MBytes):  RWF=   2790 Int=      0 D2E=      0 Chk=      4 Scr=      1
 Normal termination of Gaussian 16 at Mon Jul 23 12:25:09 2018.
