 Entering Link 1 = C:\G16W\l1.exe PID=     19240.
  
 Copyright (c) 1988-2017, Gaussian, Inc.  All Rights Reserved.
  
 This is part of the Gaussian(R) 16 program.  It is based on
 the Gaussian(R) 09 system (copyright 2009, Gaussian, Inc.),
 the Gaussian(R) 03 system (copyright 2003, Gaussian, Inc.),
 the Gaussian(R) 98 system (copyright 1998, Gaussian, Inc.),
 the Gaussian(R) 94 system (copyright 1995, Gaussian, Inc.),
 the Gaussian 92(TM) system (copyright 1992, Gaussian, Inc.),
 the Gaussian 90(TM) system (copyright 1990, Gaussian, Inc.),
 the Gaussian 88(TM) system (copyright 1988, Gaussian, Inc.),
 the Gaussian 86(TM) system (copyright 1986, Carnegie Mellon
 University), and the Gaussian 82(TM) system (copyright 1983,
 Carnegie Mellon University). Gaussian is a federally registered
 trademark of Gaussian, Inc.
  
 This software contains proprietary and confidential information,
 including trade secrets, belonging to Gaussian, Inc.
  
 This software is provided under written license and may be
 used, copied, transmitted, or stored only in accord with that
 written license.
  
 The following legend is applicable only to US Government
 contracts under FAR:
  
                    RESTRICTED RIGHTS LEGEND
  
 Use, reproduction and disclosure by the US Government is
 subject to restrictions as set forth in subparagraphs (a)
 and (c) of the Commercial Computer Software - Restricted
 Rights clause in FAR 52.227-19.
  
 Gaussian, Inc.
 340 Quinnipiac St., Bldg. 40, Wallingford CT 06492
  
  
 ---------------------------------------------------------------
 Warning -- This program may not be used in any manner that
 competes with the business of Gaussian, Inc. or will provide
 assistance to any competitor of Gaussian, Inc.  The licensee
 of this program is prohibited from giving any competitor of
 Gaussian, Inc. access to this program.  By using this program,
 the user acknowledges that Gaussian, Inc. is engaged in the
 business of creating and licensing software in the field of
 computational chemistry and represents and warrants to the
 licensee that it is not a competitor of Gaussian, Inc. and that
 it will not use this program in any manner prohibited above.
 ---------------------------------------------------------------
  

 Cite this work as:
 Gaussian 16, Revision B.01,
 M. J. Frisch, G. W. Trucks, H. B. Schlegel, G. E. Scuseria, 
 M. A. Robb, J. R. Cheeseman, G. Scalmani, V. Barone, 
 G. A. Petersson, H. Nakatsuji, X. Li, M. Caricato, A. V. Marenich, 
 J. Bloino, B. G. Janesko, R. Gomperts, B. Mennucci, H. P. Hratchian, 
 J. V. Ortiz, A. F. Izmaylov, J. L. Sonnenberg, D. Williams-Young, 
 F. Ding, F. Lipparini, F. Egidi, J. Goings, B. Peng, A. Petrone, 
 T. Henderson, D. Ranasinghe, V. G. Zakrzewski, J. Gao, N. Rega, 
 G. Zheng, W. Liang, M. Hada, M. Ehara, K. Toyota, R. Fukuda, 
 J. Hasegawa, M. Ishida, T. Nakajima, Y. Honda, O. Kitao, H. Nakai, 
 T. Vreven, K. Throssell, J. A. Montgomery, Jr., J. E. Peralta, 
 F. Ogliaro, M. J. Bearpark, J. J. Heyd, E. N. Brothers, K. N. Kudin, 
 V. N. Staroverov, T. A. Keith, R. Kobayashi, J. Normand, 
 K. Raghavachari, A. P. Rendell, J. C. Burant, S. S. Iyengar, 
 J. Tomasi, M. Cossi, J. M. Millam, M. Klene, C. Adamo, R. Cammi, 
 J. W. Ochterski, R. L. Martin, K. Morokuma, O. Farkas, 
 J. B. Foresman, and D. J. Fox, Gaussian, Inc., Wallingford CT, 2016.
 
 ******************************************
 Gaussian 16:  EM64W-G16RevB.01 16-Dec-2017
                23-Jul-2018 
 ******************************************
 %nproc=2
 Will use up to    2 processors via shared memory.
 %mem=4gb
 -----------------------------------------------
 # MP2 Aug-cc-pvTZ opt=(noeigen,calcfc,z-matrix)
 -----------------------------------------------
 1/10=4,11=1,18=40,38=1/1,3;
 2/12=2,17=6,18=5,29=3,40=1/2;
 3/5=16,6=1,7=10,11=9,25=1,30=1,71=2,140=1/1,2,3;
 4//1;
 5/5=2,38=5/2;
 8/6=3,8=1,10=1,19=11,30=-1/1;
 9/15=3,16=-3/6;
 11/6=1,8=1,15=11,17=12,24=-1,27=1,28=-2,29=300,32=6,42=3/1,2,10;
 10/6=2,21=1/2;
 8/6=4,8=1,10=1,19=11,30=-1/11,4;
 10/5=1,20=4/2;
 11/12=2,14=11,16=1,17=2,28=-2,42=3,76=2/2,10,12;
 6/7=2,8=2,9=2,10=2/1;
 7/10=1,12=2,25=1,44=2/1,2,3,16;
 1/10=4,11=1,18=40/3(2);
 2/29=3/2;
 99//99;
 2/29=3/2;
 3/5=16,6=1,7=10,11=9,25=1,30=1,71=1/1,2,3;
 4/5=5,16=3,69=1/1;
 5/5=2,38=5/2;
 8/6=4,10=1/1;
 9/15=2,16=-3/6;
 10/5=1/2;
 7/12=2/1,2,3,16;
 1/11=1,18=40/3(-8);
 2/29=3/2;
 6/7=2,8=2,9=2,10=2/1;
 99/9=10/99;
 -------
 Formate
 -------
 Symbolic Z-matrix:
 Charge = -1 Multiplicity = 1
 C
 O                    1    R
 O                    1    R1       2    A1
 H                    1    R2       2    A2       3     180.     0
       Variables:
  R1                    1.25827                  
  R2                    1.12525                  
  A1                  130.18115                  
  A2                  114.9094                   
       Constants:
  R                     1.45                     
 

 GradGradGradGradGradGradGradGradGradGradGradGradGradGradGradGradGradGrad
 Berny optimization.
 Initialization pass.
                       ----------------------------
                       !    Initial Parameters    !
                       ! (Angstroms and Degrees)  !
 ----------------------                            ----------------------
 !      Name          Value   Derivative information (Atomic Units)     !
 ------------------------------------------------------------------------
 !       R1          1.2583   calculate D2E/DX2 analytically            !
 !       R2          1.1253   calculate D2E/DX2 analytically            !
 !       A1        130.1811   calculate D2E/DX2 analytically            !
 !       A2        114.9094   calculate D2E/DX2 analytically            !
 !        R          1.45     frozen, calculate D2E/DX2 analytically    !
 ------------------------------------------------------------------------
 Trust Radius=3.00D-01 FncErr=1.00D-07 GrdErr=1.00D-07 EigMax=2.50D+02 EigMin=1.00D-04
 Number of steps in this run=     20 maximum allowed number of steps=    100.
 GradGradGradGradGradGradGradGradGradGradGradGradGradGradGradGradGradGrad

 ---------------------------------------------------------------------------------------------------
                            Z-MATRIX (ANGSTROMS AND DEGREES)
   CD    Cent   Atom    N1       Length/X        N2       Alpha/Y        N3        Beta/Z          J
 ---------------------------------------------------------------------------------------------------
      1      1  C 
      2      2  O        1   1.450000(     1)
      3      3  O        1   1.258269(     2)      2  130.181(     4)
      4      4  H        1   1.125251(     3)      2  114.909(     5)      3  180.000(     6)      0
 ---------------------------------------------------------------------------------------------------
                         Z-Matrix orientation:                         
 ---------------------------------------------------------------------
 Center     Atomic      Atomic             Coordinates (Angstroms)
 Number     Number       Type             X           Y           Z
 ---------------------------------------------------------------------
      1          6           0        0.000000    0.000000    0.000000
      2          8           0        0.000000    0.000000    1.450000
      3          8           0        0.961328    0.000000   -0.811843
      4          1           0       -1.020575    0.000000   -0.473938
 ---------------------------------------------------------------------
                    Distance matrix (angstroms):
                    1          2          3          4
     1  C    0.000000
     2  O    1.450000   0.000000
     3  O    1.258269   2.457659   0.000000
     4  H    1.125251   2.177869   2.010502   0.000000
 Stoichiometry    CHO2(1-)
 Framework group  CS[SG(CHO2)]
 Deg. of freedom     5
 Full point group                 CS      NOp   2
 Largest Abelian subgroup         CS      NOp   2
 Largest concise Abelian subgroup C1      NOp   1
                         Standard orientation:                         
 ---------------------------------------------------------------------
 Center     Atomic      Atomic             Coordinates (Angstroms)
 Number     Number       Type             X           Y           Z
 ---------------------------------------------------------------------
      1          6           0        0.000000    0.353055    0.000000
      2          8           0       -1.191042   -0.473939    0.000000
      3          8           0        1.215139    0.026439    0.000000
      4          1           0       -0.192778    1.461670    0.000000
 ---------------------------------------------------------------------
 Rotational constants (GHZ):          98.6318460          10.4359673           9.4374196
 Standard basis: Aug-CC-pVTZ (5D, 7F)
 There are   129 symmetry adapted cartesian basis functions of A'  symmetry.
 There are    61 symmetry adapted cartesian basis functions of A"  symmetry.
 There are   106 symmetry adapted basis functions of A'  symmetry.
 There are    55 symmetry adapted basis functions of A"  symmetry.
   161 basis functions,   243 primitive gaussians,   190 cartesian basis functions
    12 alpha electrons       12 beta electrons
       nuclear repulsion energy        58.3559081048 Hartrees.
 NAtoms=    4 NActive=    4 NUniq=    4 SFac= 1.00D+00 NAtFMM=   60 NAOKFM=F Big=F
 Integral buffers will be    131072 words long.
 Raffenetti 1 integral format.
 Two-electron integral symmetry is turned on.
 One-electron integrals computed using PRISM.
 NBasis=   161 RedAO= T EigKep=  1.07D-04  NBF=   106    55
 NBsUse=   161 1.00D-06 EigRej= -1.00D+00 NBFU=   106    55
 ExpMin= 2.53D-02 ExpMax= 1.53D+04 ExpMxC= 5.22D+02 IAcc=3 IRadAn=         5 AccDes= 0.00D+00
 Harris functional with IExCor=  205 and IRadAn=       5 diagonalized for initial guess.
 HarFok:  IExCor=  205 AccDes= 0.00D+00 IRadAn=         5 IDoV= 1 UseB2=F ITyADJ=14
 ICtDFT=  3500011 ScaDFX=  1.000000  1.000000  1.000000  1.000000
 FoFCou: FMM=F IPFlag=           0 FMFlag=      100000 FMFlg1=           0
         NFxFlg=           0 DoJE=T BraDBF=F KetDBF=T FulRan=T
         wScrn=  0.000000 ICntrl=       500 IOpCl=  0 I1Cent=   200000004 NGrid=           0
         NMat0=    1 NMatS0=      1 NMatT0=    0 NMatD0=    1 NMtDS0=    0 NMtDT0=    0
 Petite list used in FoFCou.
 Initial guess orbital symmetries:
       Occupied  (A') (A') (A') (A') (A') (A') (A') (A') (A") (A")
                 (A') (A')
       Virtual   (A") (A') (A') (A') (A") (A') (A') (A') (A') (A")
                 (A') (A") (A') (A') (A') (A") (A') (A') (A') (A")
                 (A') (A") (A') (A') (A") (A') (A') (A') (A') (A")
                 (A') (A') (A") (A") (A') (A") (A') (A") (A') (A')
                 (A') (A') (A") (A") (A') (A") (A') (A') (A') (A")
                 (A') (A') (A") (A') (A') (A") (A") (A') (A') (A")
                 (A') (A') (A') (A") (A') (A') (A') (A") (A') (A")
                 (A") (A') (A") (A') (A') (A") (A') (A') (A') (A")
                 (A") (A') (A") (A') (A') (A') (A") (A') (A") (A')
                 (A') (A') (A") (A') (A") (A') (A') (A") (A') (A")
                 (A') (A") (A") (A') (A') (A') (A') (A") (A') (A')
                 (A") (A') (A") (A") (A') (A') (A") (A') (A') (A')
                 (A') (A') (A") (A') (A') (A") (A') (A") (A") (A')
                 (A') (A") (A") (A') (A") (A') (A") (A') (A") (A')
                 (A") (A') (A') (A') (A') (A') (A') (A') (A')
 The electronic state of the initial guess is 1-A'.
 Keep R1 ints in memory in symmetry-blocked form, NReq=128070129.
 Requested convergence on RMS density matrix=1.00D-08 within 128 cycles.
 Requested convergence on MAX density matrix=1.00D-06.
 Requested convergence on             energy=1.00D-06.
 No special actions if energy rises.
 SCF Done:  E(RHF) =  -188.230903579     A.U. after   13 cycles
            NFock= 13  Conv=0.77D-08     -V/T= 2.0040
 ExpMin= 2.53D-02 ExpMax= 1.53D+04 ExpMxC= 5.22D+02 IAcc=3 IRadAn=         5 AccDes= 0.00D+00
 HarFok:  IExCor=  205 AccDes= 0.00D+00 IRadAn=         5 IDoV=-2 UseB2=F ITyADJ=14
 ICtDFT= 12500011 ScaDFX=  1.000000  1.000000  1.000000  1.000000
 Range of M.O.s used for correlation:     4   161
 NBasis=   161 NAE=    12 NBE=    12 NFC=     3 NFV=     0
 NROrb=    158 NOA=     9 NOB=     9 NVA=   149 NVB=   149

 **** Warning!!: The largest alpha MO coefficient is  0.30799878D+02

 Disk-based method using ON**2 memory for  9 occupieds at a time.
 Permanent disk used for amplitudes=     3924660 words.
 Estimated scratch disk usage=   113146432 words.
 Actual    scratch disk usage=   109232192 words.
 JobTyp=1 Pass  1:  I=   4 to  12 NPSUse=  2 ParTrn=T ParDer=T DoDerP=T.
 (rs|ai) integrals will be sorted in core.
 Spin components of T(2) and E(2):
     alpha-alpha T2 =       0.2699649452D-01 E2=     -0.8793185759D-01
     alpha-beta  T2 =       0.1411241937D+00 E2=     -0.4966305170D+00
     beta-beta   T2 =       0.2699649452D-01 E2=     -0.8793185759D-01
 ANorm=    0.1093214152D+01
 E2 =    -0.6724942321D+00 EUMP2 =    -0.18890339781134D+03
 G2DrvN: will do     5 centers at a time, making    1 passes.
 Calling FoFCou, ICntrl=  3107 FMM=F I1Cent=   0 AccDes= 0.00D+00.
 End of G2Drv F.D. properties file   721 does not exist.
 End of G2Drv F.D. properties file   722 does not exist.
 End of G2Drv F.D. properties file   788 does not exist.
          IDoAtm=1111
          Differentiating once with respect to electric field.
                with respect to dipole field.
          Differentiating once with respect to nuclear coordinates.
 Keep R1 ints in memory in symmetry-blocked form, NReq=128071153.
          There are    15 degrees of freedom in the 1st order CPHF.  IDoFFX=6 NUNeed=    15.
     12 vectors produced by pass  0 Test12= 1.19D-14 6.67D-09 XBig12= 1.03D+01 1.46D+00.
 AX will form    12 AO Fock derivatives at one time.
     12 vectors produced by pass  1 Test12= 1.19D-14 6.67D-09 XBig12= 1.56D+00 3.79D-01.
     12 vectors produced by pass  2 Test12= 1.19D-14 6.67D-09 XBig12= 5.48D-02 4.31D-02.
     12 vectors produced by pass  3 Test12= 1.19D-14 6.67D-09 XBig12= 1.29D-03 6.92D-03.
     12 vectors produced by pass  4 Test12= 1.19D-14 6.67D-09 XBig12= 2.18D-05 9.98D-04.
     12 vectors produced by pass  5 Test12= 1.19D-14 6.67D-09 XBig12= 3.47D-07 1.94D-04.
     12 vectors produced by pass  6 Test12= 1.19D-14 6.67D-09 XBig12= 3.13D-09 1.20D-05.
      9 vectors produced by pass  7 Test12= 1.19D-14 6.67D-09 XBig12= 3.06D-11 1.29D-06.
      3 vectors produced by pass  8 Test12= 1.19D-14 6.67D-09 XBig12= 2.76D-13 9.66D-08.
      1 vectors produced by pass  9 Test12= 1.19D-14 6.67D-09 XBig12= 2.15D-15 9.79D-09.
 InvSVY:  IOpt=1 It=  1 EMax= 9.99D-16
 Solved reduced A of dimension    97 with    12 vectors.
 End of Minotr F.D. properties file   721 does not exist.
 End of Minotr F.D. properties file   722 does not exist.
 End of Minotr F.D. properties file   788 does not exist.
 MDV=   536870912.
 Form MO integral derivatives with frozen-active canonical formalism.
 Discarding MO integrals.
 Reordered first order wavefunction length =      6393888
 In DefCFB: NBatch=  1 ICI= 12 ICA=149 LFMax= 50
            Large arrays: LIAPS=   218779680 LIARS=   130792200 words.
 Semi-Direct transformation.
 ModeAB=           2 MOrb=            12 LenV=     536063795
 LASXX=     23759367 LTotXX=    23759367 LenRXX=    23759367
 LTotAB=    24195042 MaxLAS=    35056140 LenRXY=    35056140
 NonZer=    47518734 LenScr=    72043008 LnRSAI=           0
 LnScr1=           0 LExtra=           0 Total=    130858515
 MaxDsk=          -1 SrtSym=           F ITran=            4
 JobTyp=0 Pass  1:  I=   1 to  12.
 (rs|ai) integrals will be sorted in core.
 Spin components of T(2) and E(2):
     alpha-alpha T2 =       0.2699649452D-01 E2=     -0.8793185759D-01
     alpha-beta  T2 =       0.1411241937D+00 E2=     -0.4966305170D+00
     beta-beta   T2 =       0.2699649452D-01 E2=     -0.8793185759D-01
 ANorm=    0.1546038281D+01
 E2 =    -0.6724942321D+00 EUMP2 =    -0.18890339781134D+03
          IDoAtm=1111
          Differentiating once with respect to electric field.
                with respect to dipole field.
          Differentiating once with respect to nuclear coordinates.
          There are     1 degrees of freedom in the 1st order CPHF.  IDoFFX=0 NUNeed=     1.
 LinEq1:  Iter=  0 NonCon=     1 RMS=7.67D-03 Max=1.16D-01 NDo=     1
 LinEq1:  Iter=  1 NonCon=     1 RMS=2.21D-03 Max=2.70D-02 NDo=     1
 LinEq1:  Iter=  2 NonCon=     1 RMS=9.73D-04 Max=1.21D-02 NDo=     1
 LinEq1:  Iter=  3 NonCon=     1 RMS=4.13D-04 Max=3.48D-03 NDo=     1
 LinEq1:  Iter=  4 NonCon=     1 RMS=1.83D-04 Max=3.25D-03 NDo=     1
 LinEq1:  Iter=  5 NonCon=     1 RMS=7.59D-05 Max=8.37D-04 NDo=     1
 LinEq1:  Iter=  6 NonCon=     1 RMS=3.30D-05 Max=3.58D-04 NDo=     1
 LinEq1:  Iter=  7 NonCon=     1 RMS=6.73D-06 Max=5.08D-05 NDo=     1
 LinEq1:  Iter=  8 NonCon=     1 RMS=1.60D-06 Max=1.71D-05 NDo=     1
 LinEq1:  Iter=  9 NonCon=     1 RMS=3.17D-07 Max=2.33D-06 NDo=     1
 LinEq1:  Iter= 10 NonCon=     1 RMS=5.38D-08 Max=3.57D-07 NDo=     1
 LinEq1:  Iter= 11 NonCon=     1 RMS=1.02D-08 Max=8.39D-08 NDo=     1
 LinEq1:  Iter= 12 NonCon=     1 RMS=1.62D-09 Max=1.71D-08 NDo=     1
 LinEq1:  Iter= 13 NonCon=     1 RMS=2.64D-10 Max=2.91D-09 NDo=     1
 LinEq1:  Iter= 14 NonCon=     0 RMS=3.92D-11 Max=3.53D-10 NDo=     1
 Linear equations converged to 1.000D-10 1.000D-09 after    14 iterations.
 End of Minotr F.D. properties file   721 does not exist.
 End of Minotr F.D. properties file   722 does not exist.
 End of Minotr F.D. properties file   788 does not exist.
 Symmetrizing basis deriv contribution to polar:
 IMax=3 JMax=2 DiffMx= 0.00D+00
 G2DrvN: will do     5 centers at a time, making    1 passes.
 Calling FoFCou, ICntrl=  3107 FMM=F I1Cent=   0 AccDes= 0.00D+00.
 End of G2Drv F.D. properties file   721 does not exist.
 End of G2Drv F.D. properties file   722 does not exist.
 End of G2Drv F.D. properties file   788 does not exist.
 R2 and R3 integrals will be kept in memory, NReq=   332743010.
 DD1Dir will call FoFMem   1 times, MxPair=       156
 NAB=    78 NAA=     0 NBB=     0.
 Discarding MO integrals.

 **********************************************************************

            Population analysis using the SCF Density.

 **********************************************************************

 Orbital symmetries:
       Occupied  (A') (A') (A') (A') (A') (A') (A') (A') (A") (A')
                 (A') (A")
       Virtual   (A') (A') (A") (A') (A') (A') (A') (A") (A") (A')
                 (A') (A") (A') (A') (A") (A') (A') (A') (A') (A")
                 (A") (A') (A') (A') (A") (A') (A') (A') (A') (A")
                 (A') (A') (A") (A') (A") (A") (A') (A') (A") (A')
                 (A') (A") (A') (A') (A') (A") (A") (A') (A') (A")
                 (A') (A") (A') (A') (A') (A") (A") (A') (A') (A")
                 (A') (A') (A') (A") (A') (A') (A') (A") (A') (A")
                 (A") (A') (A") (A') (A') (A") (A') (A') (A') (A")
                 (A") (A') (A") (A') (A') (A') (A") (A") (A') (A')
                 (A') (A') (A") (A') (A") (A') (A") (A') (A") (A')
                 (A') (A') (A") (A") (A') (A') (A') (A") (A') (A')
                 (A") (A") (A') (A') (A") (A") (A') (A') (A') (A')
                 (A') (A') (A") (A') (A') (A") (A') (A") (A") (A')
                 (A") (A') (A") (A') (A") (A') (A") (A') (A') (A")
                 (A') (A") (A') (A') (A') (A') (A') (A') (A')
 The electronic state is 1-A'.
 Alpha  occ. eigenvalues --  -20.32708 -20.28788 -11.15790  -1.14674  -0.99634
 Alpha  occ. eigenvalues --   -0.57940  -0.42564  -0.36547  -0.32374  -0.20908
 Alpha  occ. eigenvalues --   -0.19075  -0.17886
 Alpha virt. eigenvalues --    0.14168   0.21114   0.21506   0.21888   0.27661
 Alpha virt. eigenvalues --    0.31821   0.32667   0.33688   0.35439   0.36775
 Alpha virt. eigenvalues --    0.39157   0.40872   0.41404   0.45063   0.47040
 Alpha virt. eigenvalues --    0.49347   0.51228   0.54011   0.57055   0.58606
 Alpha virt. eigenvalues --    0.61456   0.67568   0.70052   0.72558   0.73004
 Alpha virt. eigenvalues --    0.78935   0.82517   0.89381   0.92018   0.96785
 Alpha virt. eigenvalues --    0.99394   1.00976   1.03613   1.04563   1.06031
 Alpha virt. eigenvalues --    1.08756   1.09691   1.10351   1.10419   1.15533
 Alpha virt. eigenvalues --    1.19847   1.20117   1.21966   1.22964   1.25804
 Alpha virt. eigenvalues --    1.25868   1.31540   1.38247   1.41152   1.43318
 Alpha virt. eigenvalues --    1.46304   1.55869   1.57195   1.61418   1.64605
 Alpha virt. eigenvalues --    1.70219   1.72968   1.73339   1.79674   1.81249
 Alpha virt. eigenvalues --    1.88952   1.99145   2.03695   2.09682   2.18241
 Alpha virt. eigenvalues --    2.23173   2.38085   2.38657   2.42434   2.47468
 Alpha virt. eigenvalues --    2.55537   2.58970   2.59370   2.59401   2.63032
 Alpha virt. eigenvalues --    2.63436   2.66768   2.68039   2.73888   2.74120
 Alpha virt. eigenvalues --    2.81725   2.81835   2.85164   2.93588   2.98323
 Alpha virt. eigenvalues --    3.02572   3.11780   3.16032   3.16755   3.24431
 Alpha virt. eigenvalues --    3.27957   3.34610   3.42611   3.49542   3.52288
 Alpha virt. eigenvalues --    3.73056   3.78638   3.78969   3.94909   3.98239
 Alpha virt. eigenvalues --    4.06120   4.14623   4.15606   4.26517   4.29914
 Alpha virt. eigenvalues --    4.36956   4.49431   4.49743   4.55365   4.71551
 Alpha virt. eigenvalues --    4.83738   4.93300   4.96703   5.15791   5.22201
 Alpha virt. eigenvalues --    5.30104   5.34847   5.42758   5.70640   5.90331
 Alpha virt. eigenvalues --    6.33603   6.52202   6.82108   6.83336   6.86528
 Alpha virt. eigenvalues --    6.86649   7.01874   7.04427   7.09311   7.11178
 Alpha virt. eigenvalues --    7.19558   7.20236   7.26146   7.35501   7.40335
 Alpha virt. eigenvalues --    7.46541   7.47569   7.52150   7.64212   7.71634
 Alpha virt. eigenvalues --    7.77241   7.80001   7.90807   7.99181   8.04338
 Alpha virt. eigenvalues --    8.04927  12.14858  14.17603  15.80058
          Condensed to atoms (all electrons):
               1          2          3          4
     1  C    4.886758   0.354513   0.439443   0.294717
     2  O    0.354513   8.519510  -0.067684  -0.019082
     3  O    0.439443  -0.067684   8.301875  -0.042672
     4  H    0.294717  -0.019082  -0.042672   0.373386
 Mulliken charges:
               1
     1  C    0.024569
     2  O   -0.787258
     3  O   -0.630962
     4  H    0.393651
 Sum of Mulliken charges =  -1.00000
 Mulliken charges with hydrogens summed into heavy atoms:
               1
     1  C    0.418220
     2  O   -0.787258
     3  O   -0.630962
 APT charges:
               1
     1  C    1.107527
     2  O   -1.039414
     3  O   -0.940574
     4  H   -0.127540
 Sum of APT charges =  -1.00000
 APT charges with hydrogens summed into heavy atoms:
               1
     1  C    0.979987
     2  O   -1.039414
     3  O   -0.940574
 Electronic spatial extent (au):  <R**2>=            152.0425
 Charge=             -1.0000 electrons
 Dipole moment (field-independent basis, Debye):
    X=              0.9532    Y=              2.4799    Z=              0.0000  Tot=              2.6568
 Quadrupole moment (field-independent basis, Debye-Ang):
   XX=            -30.8580   YY=            -20.3524   ZZ=            -19.3535
   XY=             -2.3446   XZ=              0.0000   YZ=              0.0000
 Traceless Quadrupole moment (field-independent basis, Debye-Ang):
   XX=             -7.3367   YY=              3.1689   ZZ=              4.1678
   XY=             -2.3446   XZ=              0.0000   YZ=              0.0000
 Octapole moment (field-independent basis, Debye-Ang**2):
  XXX=              3.6880  YYY=              1.2753  ZZZ=              0.0000  XYY=              1.4979
  XXY=              1.4279  XXZ=              0.0000  XZZ=              1.3142  YZZ=              0.2299
  YYZ=              0.0000  XYZ=              0.0000
 Hexadecapole moment (field-independent basis, Debye-Ang**3):
 XXXX=           -154.5364 YYYY=            -46.9932 ZZZZ=            -20.9937 XXXY=            -14.0311
 XXXZ=              0.0000 YYYX=            -12.1886 YYYZ=              0.0000 ZZZX=              0.0000
 ZZZY=              0.0000 XXYY=            -32.1259 XXZZ=            -27.6872 YYZZ=            -11.4417
 XXYZ=              0.0000 YYXZ=              0.0000 ZZXY=             -4.1531
 N-N= 5.835590810479D+01 E-N=-5.682703764678D+02  KE= 1.874744988163D+02
 Symmetry A'   KE= 1.798958060790D+02
 Symmetry A"   KE= 7.578692737293D+00
  Exact polarizability:  46.192   3.623  36.459   0.000   0.000  25.467
 Approx polarizability:  30.074   1.955  23.982   0.000   0.000  19.533
 Calling FoFJK, ICntrl=  10100127 FMM=F ISym2X=1 I1Cent= 0 IOpClX= 0 NMat=1 NMatS=1 NMatT=0.
 ***** Axes restored to original set *****
 -------------------------------------------------------------------
 Center     Atomic                   Forces (Hartrees/Bohr)
 Number     Number              X              Y              Z
 -------------------------------------------------------------------
      1        6           0.011172274    0.000000000    0.090556274
      2        8          -0.000629847    0.000000000   -0.125928823
      3        8          -0.014825389    0.000000000    0.022802871
      4        1           0.004282962    0.000000000    0.012569679
 -------------------------------------------------------------------
 Cartesian Forces:  Max     0.125928823 RMS     0.045734585
 -----------------------------------------------------------------------------------------------
                       Internal Coordinate Forces (Hartree/Bohr or radian)
  Cent   Atom   N1       Length/X         N2         Alpha/Y        N3         Beta/Z          J
 -----------------------------------------------------------------------------------------------
      1  C 
      2  O        1  -0.125929(     1)
      3  O        1  -0.026039(     2)      2  -0.018680(     4)
      4  H        1  -0.009179(     3)      2  -0.020406(     5)      3   0.000000(     6)     0
 -----------------------------------------------------------------------------------------------
 Internal  Forces:  Max     0.125928823 RMS     0.053829546

 GradGradGradGradGradGradGradGradGradGradGradGradGradGradGradGradGradGrad
 Berny optimization.
 Search for a local minimum.
 Step number   1 out of a maximum of   20
 All quantities printed in internal units (Hartrees-Bohrs-Radians)
 Second derivative matrix not updated -- analytic derivatives used.
 The second derivative matrix:
                          R1        R2        A1        A2         R
           R1           0.59161
           R2           0.03261   0.26782
           A1          -0.02986  -0.03036   0.42746
           A2          -0.06506  -0.00923   0.15624   0.26482
           R            0.06467   0.01873   0.04020   0.04727   0.15918
 ITU=  0
     Eigenvalues ---    0.16501   0.26335   0.49005   0.633291000.00000
 RFO step:  Lambda=-3.61258582D-03 EMin= 1.65014251D-01
 Linear search not attempted -- first point.
 Variable       Old X    -DE/DX   Delta X   Delta X   Delta X     New X
                                 (Linear)    (Quad)   (Total)
    R1        2.37778  -0.02604   0.00000  -0.05147  -0.05147   2.32631
    R2        2.12642  -0.00918   0.00000  -0.03263  -0.03263   2.09379
    A1        2.27209  -0.01868   0.00000  -0.02118  -0.02118   2.25090
    A2        2.00555  -0.02041   0.00000  -0.07729  -0.07729   1.92826
    R         2.74010  -0.12593   0.00000   0.00000   0.00000   2.74010
         Item               Value     Threshold  Converged?
 Maximum Force            0.026039     0.000450     NO 
 RMS     Force            0.019543     0.000300     NO 
 Maximum Displacement     0.077287     0.001800     NO 
 RMS     Displacement     0.045024     0.001200     NO 
 Predicted change in Energy=-1.824599D-03
 GradGradGradGradGradGradGradGradGradGradGradGradGradGradGradGradGradGrad

 ---------------------------------------------------------------------------------------------------
                            Z-MATRIX (ANGSTROMS AND DEGREES)
   CD    Cent   Atom    N1       Length/X        N2       Alpha/Y        N3        Beta/Z          J
 ---------------------------------------------------------------------------------------------------
      1      1  C 
      2      2  O        1   1.450000(     1)
      3      3  O        1   1.231033(     2)      2  128.967(     4)
      4      4  H        1   1.107985(     3)      2  110.481(     5)      3  180.000(     6)      0
 ---------------------------------------------------------------------------------------------------
                         Z-Matrix orientation:                         
 ---------------------------------------------------------------------
 Center     Atomic      Atomic             Coordinates (Angstroms)
 Number     Number       Type             X           Y           Z
 ---------------------------------------------------------------------
      1          6           0        0.000000    0.000000    0.000000
      2          8           0        0.000000    0.000000    1.450000
      3          8           0        0.957134    0.000000   -0.774168
      4          1           0       -1.037946    0.000000   -0.387684
 ---------------------------------------------------------------------
                    Distance matrix (angstroms):
                    1          2          3          4
     1  C    0.000000
     2  O    1.450000   0.000000
     3  O    1.231033   2.421369   0.000000
     4  H    1.107985   2.110549   2.032170   0.000000
 Stoichiometry    CHO2(1-)
 Framework group  CS[SG(CHO2)]
 Deg. of freedom     5
 Full point group                 CS      NOp   2
 Largest Abelian subgroup         CS      NOp   2
 Largest concise Abelian subgroup C1      NOp   1
                         Standard orientation:                         
 ---------------------------------------------------------------------
 Center     Atomic      Atomic             Coordinates (Angstroms)
 Number     Number       Type             X           Y           Z
 ---------------------------------------------------------------------
      1          6           0        0.000000    0.361165    0.000000
      2          8           0       -1.155407   -0.514926    0.000000
      3          8           0        1.195183    0.066243    0.000000
      4          1           0       -0.318208    1.422473    0.000000
 ---------------------------------------------------------------------
 Rotational constants (GHZ):          98.2609476          10.7461083           9.6867379
 Standard basis: Aug-CC-pVTZ (5D, 7F)
 There are   129 symmetry adapted cartesian basis functions of A'  symmetry.
 There are    61 symmetry adapted cartesian basis functions of A"  symmetry.
 There are   106 symmetry adapted basis functions of A'  symmetry.
 There are    55 symmetry adapted basis functions of A"  symmetry.
   161 basis functions,   243 primitive gaussians,   190 cartesian basis functions
    12 alpha electrons       12 beta electrons
       nuclear repulsion energy        59.0925966192 Hartrees.
 NAtoms=    4 NActive=    4 NUniq=    4 SFac= 1.00D+00 NAtFMM=   60 NAOKFM=F Big=F
 Integral buffers will be    131072 words long.
 Raffenetti 1 integral format.
 Two-electron integral symmetry is turned on.
 One-electron integrals computed using PRISM.
 NBasis=   161 RedAO= T EigKep=  9.85D-05  NBF=   106    55
 NBsUse=   161 1.00D-06 EigRej= -1.00D+00 NBFU=   106    55
 Initial guess from the checkpoint file:  "C:\Users\Garrett\Downloads\NanoclusterOutput\Gau-19240.chk"
 B after Tr=     0.000000    0.000000    0.000000
         Rot=    0.999797    0.000000    0.000000   -0.020128 Ang=  -2.31 deg.
 Initial guess orbital symmetries:
       Occupied  (A') (A') (A') (A') (A') (A') (A') (A') (A") (A')
                 (A') (A")
       Virtual   (A') (A') (A") (A') (A') (A') (A') (A") (A") (A')
                 (A') (A") (A') (A') (A") (A') (A') (A') (A') (A")
                 (A") (A') (A') (A') (A") (A') (A') (A') (A') (A")
                 (A') (A') (A") (A') (A") (A") (A') (A') (A") (A')
                 (A') (A") (A') (A') (A') (A") (A") (A') (A') (A")
                 (A') (A") (A') (A') (A') (A") (A") (A') (A') (A")
                 (A') (A') (A') (A") (A') (A') (A') (A") (A') (A")
                 (A") (A') (A") (A') (A') (A") (A') (A') (A') (A")
                 (A") (A') (A") (A') (A') (A') (A") (A") (A') (A')
                 (A') (A') (A") (A') (A") (A') (A") (A') (A") (A')
                 (A') (A') (A") (A") (A') (A') (A') (A") (A') (A')
                 (A") (A") (A') (A') (A") (A") (A') (A') (A') (A')
                 (A') (A') (A") (A') (A') (A") (A') (A") (A") (A')
                 (A") (A') (A") (A') (A") (A') (A") (A') (A') (A")
                 (A') (A") (A') (A') (A') (A') (A') (A') (A')
 ExpMin= 2.53D-02 ExpMax= 1.53D+04 ExpMxC= 5.22D+02 IAcc=3 IRadAn=         5 AccDes= 0.00D+00
 Harris functional with IExCor=  205 and IRadAn=       5 diagonalized for initial guess.
 HarFok:  IExCor=  205 AccDes= 0.00D+00 IRadAn=         5 IDoV= 1 UseB2=F ITyADJ=14
 ICtDFT=  3500011 ScaDFX=  1.000000  1.000000  1.000000  1.000000
 FoFCou: FMM=F IPFlag=           0 FMFlag=      100000 FMFlg1=           0
         NFxFlg=           0 DoJE=T BraDBF=F KetDBF=T FulRan=T
         wScrn=  0.000000 ICntrl=       500 IOpCl=  0 I1Cent=   200000004 NGrid=           0
         NMat0=    1 NMatS0=      1 NMatT0=    0 NMatD0=    1 NMtDS0=    0 NMtDT0=    0
 Petite list used in FoFCou.
 Keep R1 ints in memory in symmetry-blocked form, NReq=128070129.
 Requested convergence on RMS density matrix=1.00D-08 within 128 cycles.
 Requested convergence on MAX density matrix=1.00D-06.
 Requested convergence on             energy=1.00D-06.
 No special actions if energy rises.
 SCF Done:  E(RHF) =  -188.235193333     A.U. after   12 cycles
            NFock= 12  Conv=0.38D-08     -V/T= 2.0034
 ExpMin= 2.53D-02 ExpMax= 1.53D+04 ExpMxC= 5.22D+02 IAcc=3 IRadAn=         5 AccDes= 0.00D+00
 HarFok:  IExCor=  205 AccDes= 0.00D+00 IRadAn=         5 IDoV=-2 UseB2=F ITyADJ=14
 ICtDFT= 12500011 ScaDFX=  1.000000  1.000000  1.000000  1.000000
 Range of M.O.s used for correlation:     4   161
 NBasis=   161 NAE=    12 NBE=    12 NFC=     3 NFV=     0
 NROrb=    158 NOA=     9 NOB=     9 NVA=   149 NVB=   149

 **** Warning!!: The largest alpha MO coefficient is  0.30898829D+02

 Fully direct method using O(ONN) memory.
 JobTyp=1 Pass  1:  I=   4 to  12 NPSUse=  2 ParTrn=T ParDer=T DoDerP=T.
 Spin components of T(2) and E(2):
     alpha-alpha T2 =       0.2663451659D-01 E2=     -0.8763799464D-01
     alpha-beta  T2 =       0.1391004754D+00 E2=     -0.4946915883D+00
     beta-beta   T2 =       0.2663451659D-01 E2=     -0.8763799464D-01
 ANorm=    0.1091956734D+01
 E2 =    -0.6699675776D+00 EUMP2 =    -0.18890516091093D+03
          IDoAtm=1111
          Differentiating once with respect to electric field.
                with respect to dipole field.
          Differentiating once with respect to nuclear coordinates.
 Keep R1 ints in memory in symmetry-blocked form, NReq=128071153.
          There are     1 degrees of freedom in the 1st order CPHF.  IDoFFX=0 NUNeed=     1.
 LinEq1:  Iter=  0 NonCon=     1 RMS=7.52D-03 Max=1.03D-01 NDo=     1
 AX will form     1 AO Fock derivatives at one time.
 LinEq1:  Iter=  1 NonCon=     1 RMS=2.13D-03 Max=2.79D-02 NDo=     1
 LinEq1:  Iter=  2 NonCon=     1 RMS=9.51D-04 Max=1.16D-02 NDo=     1
 LinEq1:  Iter=  3 NonCon=     1 RMS=4.09D-04 Max=4.05D-03 NDo=     1
 LinEq1:  Iter=  4 NonCon=     1 RMS=1.85D-04 Max=3.30D-03 NDo=     1
 LinEq1:  Iter=  5 NonCon=     1 RMS=7.71D-05 Max=7.75D-04 NDo=     1
 LinEq1:  Iter=  6 NonCon=     1 RMS=3.11D-05 Max=3.10D-04 NDo=     1
 LinEq1:  Iter=  7 NonCon=     1 RMS=6.25D-06 Max=4.00D-05 NDo=     1
 LinEq1:  Iter=  8 NonCon=     1 RMS=1.47D-06 Max=1.49D-05 NDo=     1
 LinEq1:  Iter=  9 NonCon=     1 RMS=2.91D-07 Max=2.33D-06 NDo=     1
 LinEq1:  Iter= 10 NonCon=     1 RMS=4.89D-08 Max=3.21D-07 NDo=     1
 LinEq1:  Iter= 11 NonCon=     1 RMS=8.96D-09 Max=7.69D-08 NDo=     1
 LinEq1:  Iter= 12 NonCon=     1 RMS=1.45D-09 Max=1.66D-08 NDo=     1
 LinEq1:  Iter= 13 NonCon=     1 RMS=2.29D-10 Max=2.28D-09 NDo=     1
 LinEq1:  Iter= 14 NonCon=     0 RMS=3.24D-11 Max=2.93D-10 NDo=     1
 Linear equations converged to 1.000D-10 1.000D-09 after    14 iterations.
 End of Minotr F.D. properties file   721 does not exist.
 End of Minotr F.D. properties file   722 does not exist.
 End of Minotr F.D. properties file   788 does not exist.
 Calling FoFJK, ICntrl=  10002127 FMM=F ISym2X=1 I1Cent= 0 IOpClX= 0 NMat=1 NMatS=1 NMatT=0.
 ***** Axes restored to original set *****
 -------------------------------------------------------------------
 Center     Atomic                   Forces (Hartrees/Bohr)
 Number     Number              X              Y              Z
 -------------------------------------------------------------------
      1        6          -0.002153344    0.000000000    0.118846827
      2        8           0.000029694    0.000000000   -0.116934646
      3        8           0.002573583    0.000000000   -0.001884447
      4        1          -0.000449932    0.000000000   -0.000027733
 -------------------------------------------------------------------
 Cartesian Forces:  Max     0.118846827 RMS     0.048143272
 -----------------------------------------------------------------------------------------------
                       Internal Coordinate Forces (Hartree/Bohr or radian)
  Cent   Atom   N1       Length/X         N2         Alpha/Y        N3         Beta/Z          J
 -----------------------------------------------------------------------------------------------
      1  C 
      2  O        1  -0.116935(     1)
      3  O        1   0.003186(     2)      2  -0.000357(     4)
      4  H        1   0.000431(     3)      2  -0.000275(     5)      3   0.000000(     6)     0
 -----------------------------------------------------------------------------------------------
 Internal  Forces:  Max     0.116934646 RMS     0.047756765

 GradGradGradGradGradGradGradGradGradGradGradGradGradGradGradGradGradGrad
 Berny optimization.
 Search for a local minimum.
 Step number   2 out of a maximum of   20
 All quantities printed in internal units (Hartrees-Bohrs-Radians)
 Update second derivatives using D2CorN and points    1    2
 DE= -1.76D-03 DEPred=-1.82D-03 R= 9.66D-01
 TightC=F SS=  1.41D+00  RLast= 1.01D-01 DXNew= 5.0454D-01 3.0203D-01
 Trust test= 9.66D-01 RLast= 1.01D-01 DXMaxT set to 3.02D-01
 The second derivative matrix:
                          R1        R2        A1        A2         R
           R1           0.60873
           R2           0.03943   0.26959
           A1          -0.02704  -0.03023   0.42687
           A2          -0.05220  -0.00713   0.15518   0.26485
           R            0.06607   0.01962   0.04077   0.04937   0.15918
 ITU=  1  0
     Eigenvalues ---    0.16715   0.26446   0.49915   0.639281000.00000
 RFO step:  Lambda=-1.07178760D-05 EMin= 1.67154215D-01
 Quartic linear search produced a step of -0.03783.
 Variable       Old X    -DE/DX   Delta X   Delta X   Delta X     New X
                                 (Linear)    (Quad)   (Total)
    R1        2.32631   0.00319   0.00195   0.00310   0.00505   2.33136
    R2        2.09379   0.00043   0.00123  -0.00051   0.00073   2.09452
    A1        2.25090  -0.00036   0.00080  -0.00134  -0.00054   2.25037
    A2        1.92826  -0.00028   0.00292  -0.00273   0.00019   1.92845
    R         2.74010  -0.11693   0.00000   0.00000   0.00000   2.74010
         Item               Value     Threshold  Converged?
 Maximum Force            0.003186     0.000450     NO 
 RMS     Force            0.001623     0.000300     NO 
 Maximum Displacement     0.005046     0.001800     NO 
 RMS     Displacement     0.002294     0.001200     NO 
 Predicted change in Energy=-8.479334D-06
 GradGradGradGradGradGradGradGradGradGradGradGradGradGradGradGradGradGrad

 ---------------------------------------------------------------------------------------------------
                            Z-MATRIX (ANGSTROMS AND DEGREES)
   CD    Cent   Atom    N1       Length/X        N2       Alpha/Y        N3        Beta/Z          J
 ---------------------------------------------------------------------------------------------------
      1      1  C 
      2      2  O        1   1.450000(     1)
      3      3  O        1   1.233703(     2)      2  128.936(     4)
      4      4  H        1   1.108370(     3)      2  110.492(     5)      3  180.000(     6)      0
 ---------------------------------------------------------------------------------------------------
                         Z-Matrix orientation:                         
 ---------------------------------------------------------------------
 Center     Atomic      Atomic             Coordinates (Angstroms)
 Number     Number       Type             X           Y           Z
 ---------------------------------------------------------------------
      1          6           0        0.000000    0.000000    0.000000
      2          8           0        0.000000    0.000000    1.450000
      3          8           0        0.959627    0.000000   -0.775331
      4          1           0       -1.038232    0.000000   -0.388018
 ---------------------------------------------------------------------
                    Distance matrix (angstroms):
                    1          2          3          4
     1  C    0.000000
     2  O    1.450000   0.000000
     3  O    1.233703   2.423424   0.000000
     4  H    1.108370   2.110980   2.035056   0.000000
 Stoichiometry    CHO2(1-)
 Framework group  CS[SG(CHO2)]
 Deg. of freedom     5
 Full point group                 CS      NOp   2
 Largest Abelian subgroup         CS      NOp   2
 Largest concise Abelian subgroup C1      NOp   1
                         Standard orientation:                         
 ---------------------------------------------------------------------
 Center     Atomic      Atomic             Coordinates (Angstroms)
 Number     Number       Type             X           Y           Z
 ---------------------------------------------------------------------
      1          6           0        0.000000    0.361594    0.000000
      2          8           0       -1.157464   -0.511777    0.000000
      3          8           0        1.196916    0.062572    0.000000
      4          1           0       -0.315617    1.424077    0.000000
 ---------------------------------------------------------------------
 Rotational constants (GHZ):          98.0014014          10.7287399           9.6701019
 Standard basis: Aug-CC-pVTZ (5D, 7F)
 There are   129 symmetry adapted cartesian basis functions of A'  symmetry.
 There are    61 symmetry adapted cartesian basis functions of A"  symmetry.
 There are   106 symmetry adapted basis functions of A'  symmetry.
 There are    55 symmetry adapted basis functions of A"  symmetry.
   161 basis functions,   243 primitive gaussians,   190 cartesian basis functions
    12 alpha electrons       12 beta electrons
       nuclear repulsion energy        59.0317186421 Hartrees.
 NAtoms=    4 NActive=    4 NUniq=    4 SFac= 1.00D+00 NAtFMM=   60 NAOKFM=F Big=F
 Integral buffers will be    131072 words long.
 Raffenetti 1 integral format.
 Two-electron integral symmetry is turned on.
 One-electron integrals computed using PRISM.
 NBasis=   161 RedAO= T EigKep=  9.87D-05  NBF=   106    55
 NBsUse=   161 1.00D-06 EigRej= -1.00D+00 NBFU=   106    55
 Initial guess from the checkpoint file:  "C:\Users\Garrett\Downloads\NanoclusterOutput\Gau-19240.chk"
 B after Tr=     0.000000    0.000000    0.000000
         Rot=    0.999999    0.000000    0.000000    0.001430 Ang=   0.16 deg.
 Initial guess orbital symmetries:
       Occupied  (A') (A') (A') (A') (A') (A') (A') (A') (A") (A')
                 (A') (A")
       Virtual   (A') (A') (A") (A') (A') (A') (A') (A") (A") (A')
                 (A') (A") (A') (A') (A") (A') (A') (A') (A') (A")
                 (A") (A') (A') (A") (A') (A') (A') (A') (A') (A")
                 (A') (A') (A") (A') (A") (A") (A') (A') (A") (A')
                 (A") (A') (A') (A') (A") (A') (A") (A') (A') (A")
                 (A') (A") (A') (A') (A') (A") (A") (A') (A') (A")
                 (A') (A') (A') (A") (A') (A') (A') (A") (A') (A")
                 (A") (A') (A") (A') (A") (A') (A') (A') (A') (A")
                 (A") (A') (A") (A') (A') (A') (A") (A") (A') (A')
                 (A') (A') (A") (A') (A") (A') (A") (A') (A") (A')
                 (A') (A") (A') (A") (A') (A') (A') (A") (A') (A')
                 (A") (A") (A') (A') (A") (A") (A') (A') (A') (A')
                 (A') (A') (A") (A') (A") (A') (A') (A") (A") (A')
                 (A") (A') (A") (A') (A") (A') (A") (A') (A') (A")
                 (A") (A') (A') (A') (A') (A') (A') (A') (A')
 Keep R1 ints in memory in symmetry-blocked form, NReq=128070129.
 Requested convergence on RMS density matrix=1.00D-08 within 128 cycles.
 Requested convergence on MAX density matrix=1.00D-06.
 Requested convergence on             energy=1.00D-06.
 No special actions if energy rises.
 SCF Done:  E(RHF) =  -188.234925181     A.U. after   10 cycles
            NFock= 10  Conv=0.31D-08     -V/T= 2.0035
 ExpMin= 2.53D-02 ExpMax= 1.53D+04 ExpMxC= 5.22D+02 IAcc=3 IRadAn=         5 AccDes= 0.00D+00
 HarFok:  IExCor=  205 AccDes= 0.00D+00 IRadAn=         5 IDoV=-2 UseB2=F ITyADJ=14
 ICtDFT= 12500011 ScaDFX=  1.000000  1.000000  1.000000  1.000000
 Range of M.O.s used for correlation:     4   161
 NBasis=   161 NAE=    12 NBE=    12 NFC=     3 NFV=     0
 NROrb=    158 NOA=     9 NOB=     9 NVA=   149 NVB=   149

 **** Warning!!: The largest alpha MO coefficient is  0.30983499D+02

 Fully direct method using O(ONN) memory.
 JobTyp=1 Pass  1:  I=   4 to  12 NPSUse=  2 ParTrn=T ParDer=T DoDerP=T.
 Spin components of T(2) and E(2):
     alpha-alpha T2 =       0.2667244445D-01 E2=     -0.8767448305D-01
     alpha-beta  T2 =       0.1392957348D+00 E2=     -0.4948940772D+00
     beta-beta   T2 =       0.2667244445D-01 E2=     -0.8767448305D-01
 ANorm=    0.1092080869D+01
 E2 =    -0.6702430433D+00 EUMP2 =    -0.18890516822420D+03
          IDoAtm=1111
          Differentiating once with respect to electric field.
                with respect to dipole field.
          Differentiating once with respect to nuclear coordinates.
 Keep R1 ints in memory in symmetry-blocked form, NReq=128071153.
          There are     1 degrees of freedom in the 1st order CPHF.  IDoFFX=0 NUNeed=     1.
 LinEq1:  Iter=  0 NonCon=     1 RMS=7.54D-03 Max=1.04D-01 NDo=     1
 AX will form     1 AO Fock derivatives at one time.
 LinEq1:  Iter=  1 NonCon=     1 RMS=2.14D-03 Max=2.79D-02 NDo=     1
 LinEq1:  Iter=  2 NonCon=     1 RMS=9.54D-04 Max=1.16D-02 NDo=     1
 LinEq1:  Iter=  3 NonCon=     1 RMS=4.10D-04 Max=4.02D-03 NDo=     1
 LinEq1:  Iter=  4 NonCon=     1 RMS=1.86D-04 Max=3.31D-03 NDo=     1
 LinEq1:  Iter=  5 NonCon=     1 RMS=7.73D-05 Max=7.83D-04 NDo=     1
 LinEq1:  Iter=  6 NonCon=     1 RMS=3.13D-05 Max=3.14D-04 NDo=     1
 LinEq1:  Iter=  7 NonCon=     1 RMS=6.31D-06 Max=4.03D-05 NDo=     1
 LinEq1:  Iter=  8 NonCon=     1 RMS=1.48D-06 Max=1.52D-05 NDo=     1
 LinEq1:  Iter=  9 NonCon=     1 RMS=2.94D-07 Max=2.35D-06 NDo=     1
 LinEq1:  Iter= 10 NonCon=     1 RMS=4.95D-08 Max=3.21D-07 NDo=     1
 LinEq1:  Iter= 11 NonCon=     1 RMS=9.09D-09 Max=7.77D-08 NDo=     1
 LinEq1:  Iter= 12 NonCon=     1 RMS=1.47D-09 Max=1.68D-08 NDo=     1
 LinEq1:  Iter= 13 NonCon=     1 RMS=2.31D-10 Max=2.30D-09 NDo=     1
 LinEq1:  Iter= 14 NonCon=     0 RMS=3.27D-11 Max=2.96D-10 NDo=     1
 Linear equations converged to 1.000D-10 1.000D-09 after    14 iterations.
 End of Minotr F.D. properties file   721 does not exist.
 End of Minotr F.D. properties file   722 does not exist.
 End of Minotr F.D. properties file   788 does not exist.
 Calling FoFJK, ICntrl=  10002127 FMM=F ISym2X=1 I1Cent= 0 IOpClX= 0 NMat=1 NMatS=1 NMatT=0.
 ***** Axes restored to original set *****
 -------------------------------------------------------------------
 Center     Atomic                   Forces (Hartrees/Bohr)
 Number     Number              X              Y              Z
 -------------------------------------------------------------------
      1        6           0.000277772    0.000000000    0.117069982
      2        8           0.000032913    0.000000000   -0.117291112
      3        8          -0.000278958    0.000000000    0.000253221
      4        1          -0.000031727    0.000000000   -0.000032091
 -------------------------------------------------------------------
 Cartesian Forces:  Max     0.117291112 RMS     0.047838973
 -----------------------------------------------------------------------------------------------
                       Internal Coordinate Forces (Hartree/Bohr or radian)
  Cent   Atom   N1       Length/X         N2         Alpha/Y        N3         Beta/Z          J
 -----------------------------------------------------------------------------------------------
      1  C 
      2  O        1  -0.117291(     1)
      3  O        1  -0.000376(     2)      2  -0.000050(     4)
      4  H        1   0.000041(     3)      2   0.000040(     5)      3   0.000000(     6)     0
 -----------------------------------------------------------------------------------------------
 Internal  Forces:  Max     0.117291112 RMS     0.047884152

 GradGradGradGradGradGradGradGradGradGradGradGradGradGradGradGradGradGrad
 Berny optimization.
 Search for a local minimum.
 Step number   3 out of a maximum of   20
 All quantities printed in internal units (Hartrees-Bohrs-Radians)
 Update second derivatives using D2CorN and points    1    2    3
 DE= -7.31D-06 DEPred=-8.48D-06 R= 8.62D-01
 TightC=F SS=  1.41D+00  RLast= 5.13D-03 DXNew= 5.0795D-01 1.5391D-02
 Trust test= 8.62D-01 RLast= 5.13D-03 DXMaxT set to 3.02D-01
 The second derivative matrix:
                          R1        R2        A1        A2         R
           R1           0.69628
           R2           0.04422   0.26886
           A1          -0.02650  -0.02988   0.42491
           A2          -0.05115  -0.00867   0.15323   0.25913
           R            0.06839   0.02028   0.04088   0.05045   0.15918
 ITU=  1  1  0
     Eigenvalues ---    0.16499   0.26295   0.50535   0.715891000.00000
 RFO step:  Lambda=-4.38218958D-08 EMin= 1.64992691D-01
 Quartic linear search produced a step of -0.10088.
 Variable       Old X    -DE/DX   Delta X   Delta X   Delta X     New X
                                 (Linear)    (Quad)   (Total)
    R1        2.33136  -0.00038  -0.00051  -0.00004  -0.00055   2.33081
    R2        2.09452   0.00004  -0.00007   0.00028   0.00021   2.09473
    A1        2.25037  -0.00005   0.00005  -0.00023  -0.00018   2.25019
    A2        1.92845   0.00004  -0.00002   0.00017   0.00015   1.92860
    R         2.74010  -0.11729   0.00000   0.00000   0.00000   2.74010
         Item               Value     Threshold  Converged?
 Maximum Force            0.000376     0.000450     YES
 RMS     Force            0.000192     0.000300     YES
 Maximum Displacement     0.000553     0.001800     YES
 RMS     Displacement     0.000285     0.001200     YES
 Predicted change in Energy=-1.162614D-07
 Optimization completed.
    -- Stationary point found.
                       ----------------------------
                       !   Optimized Parameters   !
                       ! (Angstroms and Degrees)  !
 ----------------------                            ----------------------
 !      Name          Value   Derivative information (Atomic Units)     !
 ------------------------------------------------------------------------
 !       R1          1.2337   -DE/DX =   -0.0004                        !
 !       R2          1.1084   -DE/DX =    0.0                           !
 !       A1        128.9365   -DE/DX =   -0.0001                        !
 !       A2        110.4922   -DE/DX =    0.0                           !
 !        R          1.45     -DE/DX =   -0.1173                        !
 ------------------------------------------------------------------------
 GradGradGradGradGradGradGradGradGradGradGradGradGradGradGradGradGradGrad

 ---------------------------------------------------------------------------------------------------
                            Z-MATRIX (ANGSTROMS AND DEGREES)
   CD    Cent   Atom    N1       Length/X        N2       Alpha/Y        N3        Beta/Z          J
 ---------------------------------------------------------------------------------------------------
      1      1  C 
      2      2  O        1   1.450000(     1)
      3      3  O        1   1.233703(     2)      2  128.936(     4)
      4      4  H        1   1.108370(     3)      2  110.492(     5)      3  180.000(     6)      0
 ---------------------------------------------------------------------------------------------------
                         Z-Matrix orientation:                         
 ---------------------------------------------------------------------
 Center     Atomic      Atomic             Coordinates (Angstroms)
 Number     Number       Type             X           Y           Z
 ---------------------------------------------------------------------
      1          6           0        0.000000    0.000000    0.000000
      2          8           0        0.000000    0.000000    1.450000
      3          8           0        0.959627    0.000000   -0.775331
      4          1           0       -1.038232    0.000000   -0.388018
 ---------------------------------------------------------------------
                    Distance matrix (angstroms):
                    1          2          3          4
     1  C    0.000000
     2  O    1.450000   0.000000
     3  O    1.233703   2.423424   0.000000
     4  H    1.108370   2.110980   2.035056   0.000000
 Stoichiometry    CHO2(1-)
 Framework group  CS[SG(CHO2)]
 Deg. of freedom     5
 Full point group                 CS      NOp   2
 Largest Abelian subgroup         CS      NOp   2
 Largest concise Abelian subgroup C1      NOp   1
                         Standard orientation:                         
 ---------------------------------------------------------------------
 Center     Atomic      Atomic             Coordinates (Angstroms)
 Number     Number       Type             X           Y           Z
 ---------------------------------------------------------------------
      1          6           0        0.000000    0.361594    0.000000
      2          8           0       -1.157464   -0.511777    0.000000
      3          8           0        1.196916    0.062572    0.000000
      4          1           0       -0.315617    1.424077    0.000000
 ---------------------------------------------------------------------
 Rotational constants (GHZ):          98.0014014          10.7287399           9.6701019

 **********************************************************************

            Population analysis using the SCF Density.

 **********************************************************************

 Orbital symmetries:
       Occupied  (A') (A') (A') (A') (A') (A') (A') (A') (A") (A')
                 (A') (A")
       Virtual   (A') (A') (A") (A') (A') (A') (A') (A") (A") (A')
                 (A') (A") (A') (A') (A") (A') (A') (A') (A') (A")
                 (A") (A') (A') (A") (A') (A') (A') (A') (A') (A")
                 (A') (A') (A") (A') (A") (A") (A') (A') (A") (A')
                 (A") (A') (A') (A') (A") (A') (A") (A') (A') (A")
                 (A') (A") (A') (A') (A') (A") (A") (A') (A') (A")
                 (A') (A') (A') (A") (A') (A') (A') (A") (A') (A")
                 (A") (A') (A") (A') (A") (A') (A') (A') (A') (A")
                 (A") (A') (A") (A') (A') (A') (A") (A") (A') (A')
                 (A') (A') (A") (A') (A") (A') (A") (A') (A") (A')
                 (A') (A") (A') (A") (A') (A') (A') (A") (A') (A')
                 (A") (A") (A') (A') (A") (A") (A') (A') (A') (A')
                 (A') (A') (A") (A') (A") (A') (A') (A") (A") (A')
                 (A") (A') (A") (A') (A") (A') (A") (A') (A') (A")
                 (A") (A') (A') (A') (A') (A') (A') (A') (A')
 The electronic state is 1-A'.
 Alpha  occ. eigenvalues --  -20.32822 -20.27927 -11.15063  -1.16134  -0.99129
 Alpha  occ. eigenvalues --   -0.58163  -0.43483  -0.36755  -0.33133  -0.20665
 Alpha  occ. eigenvalues --   -0.18522  -0.17414
 Alpha virt. eigenvalues --    0.14168   0.21049   0.21451   0.21903   0.27675
 Alpha virt. eigenvalues --    0.31823   0.32695   0.33541   0.35821   0.36628
 Alpha virt. eigenvalues --    0.39324   0.41006   0.41638   0.45094   0.47364
 Alpha virt. eigenvalues --    0.49090   0.51864   0.53814   0.57223   0.58474
 Alpha virt. eigenvalues --    0.61619   0.67678   0.69972   0.73202   0.73732
 Alpha virt. eigenvalues --    0.78672   0.83250   0.90389   0.92198   0.96748
 Alpha virt. eigenvalues --    1.00038   1.01040   1.04284   1.04504   1.05854
 Alpha virt. eigenvalues --    1.08672   1.09738   1.10788   1.10796   1.15201
 Alpha virt. eigenvalues --    1.20133   1.20248   1.22569   1.23467   1.26703
 Alpha virt. eigenvalues --    1.26807   1.31431   1.38105   1.40301   1.43797
 Alpha virt. eigenvalues --    1.47663   1.55951   1.57348   1.61590   1.65071
 Alpha virt. eigenvalues --    1.70975   1.72320   1.74583   1.80130   1.83461
 Alpha virt. eigenvalues --    1.88314   1.99011   2.04508   2.10670   2.20919
 Alpha virt. eigenvalues --    2.25548   2.39306   2.39374   2.42666   2.47634
 Alpha virt. eigenvalues --    2.55633   2.59450   2.59917   2.60427   2.63682
 Alpha virt. eigenvalues --    2.63759   2.68137   2.68642   2.75111   2.75943
 Alpha virt. eigenvalues --    2.81297   2.82248   2.87400   2.90512   3.00176
 Alpha virt. eigenvalues --    3.03290   3.12664   3.14958   3.15343   3.23798
 Alpha virt. eigenvalues --    3.30133   3.35257   3.42672   3.50045   3.53146
 Alpha virt. eigenvalues --    3.73375   3.77957   3.79081   3.96952   3.99869
 Alpha virt. eigenvalues --    4.09830   4.17923   4.18785   4.28760   4.29307
 Alpha virt. eigenvalues --    4.40160   4.51101   4.51242   4.54926   4.77190
 Alpha virt. eigenvalues --    4.85782   4.91873   5.04071   5.18200   5.31631
 Alpha virt. eigenvalues --    5.34455   5.34753   5.49014   5.75330   6.00010
 Alpha virt. eigenvalues --    6.35289   6.51705   6.82427   6.83213   6.87204
 Alpha virt. eigenvalues --    6.87318   7.02621   7.04892   7.09146   7.12900
 Alpha virt. eigenvalues --    7.21509   7.21712   7.29285   7.37621   7.41273
 Alpha virt. eigenvalues --    7.46695   7.48871   7.51106   7.65074   7.72022
 Alpha virt. eigenvalues --    7.80062   7.83932   7.93520   7.99263   8.05912
 Alpha virt. eigenvalues --    8.07421  12.18586  14.64673  16.08624
          Condensed to atoms (all electrons):
               1          2          3          4
     1  C    4.905246   0.350031   0.462535   0.279657
     2  O    0.350031   8.552017  -0.074246  -0.020579
     3  O    0.462535  -0.074246   8.275878  -0.046933
     4  H    0.279657  -0.020579  -0.046933   0.365928
 Mulliken charges:
               1
     1  C    0.002531
     2  O   -0.807222
     3  O   -0.617235
     4  H    0.421926
 Sum of Mulliken charges =  -1.00000
 Mulliken charges with hydrogens summed into heavy atoms:
               1
     1  C    0.424457
     2  O   -0.807222
     3  O   -0.617235
 Electronic spatial extent (au):  <R**2>=            149.4080
 Charge=             -1.0000 electrons
 Dipole moment (field-independent basis, Debye):
    X=              1.0441    Y=              2.5987    Z=              0.0000  Tot=              2.8006
 Quadrupole moment (field-independent basis, Debye-Ang):
   XX=            -30.4201   YY=            -20.5179   ZZ=            -19.2901
   XY=             -2.8143   XZ=              0.0000   YZ=              0.0000
 Traceless Quadrupole moment (field-independent basis, Debye-Ang):
   XX=             -7.0107   YY=              2.8914   ZZ=              4.1193
   XY=             -2.8143   XZ=              0.0000   YZ=              0.0000
 Octapole moment (field-independent basis, Debye-Ang**2):
  XXX=              4.1527  YYY=              1.5357  ZZZ=              0.0000  XYY=              1.5968
  XXY=              1.5770  XXZ=              0.0000  XZZ=              1.5176  YZZ=              0.3593
  YYZ=              0.0000  XYZ=              0.0000
 Hexadecapole moment (field-independent basis, Debye-Ang**3):
 XXXX=           -149.3451 YYYY=            -48.6984 ZZZZ=            -20.9417 XXXY=            -15.6834
 XXXZ=              0.0000 YYYX=            -13.7525 YYYZ=              0.0000 ZZZX=              0.0000
 ZZZY=              0.0000 XXYY=            -31.5551 XXZZ=            -26.8802 YYZZ=            -11.6450
 XXYZ=              0.0000 YYXZ=              0.0000 ZZXY=             -4.5721
 N-N= 5.903171864207D+01 E-N=-5.697324955530D+02  KE= 1.875833937377D+02
 Symmetry A'   KE= 1.800007238631D+02
 Symmetry A"   KE= 7.582669874580D+00
 1|1|UNPC-DESKTOP-F4NP0R6|POpt|RMP2-FC|Aug-CC-pVTZ|C1H1O2(1-)|GARRETT|2
 3-Jul-2018|1||# MP2 Aug-cc-pvTZ opt=(noeigen,calcfc,z-matrix)||Formate
 ||-1,1|C|O,1,R|O,1,R1,2,A1|H,1,R2,2,A2,3,180.,0||R1=1.23370297|R2=1.10
 837013|A1=128.93649419|A2=110.49220966|R=1.45||Version=EM64W-G16RevB.0
 1|State=1-A'|HF=-188.2349252|MP2=-188.9051682|RMSD=3.126e-009|RMSF=4.7
 84e-002|Dipole=-0.4187393,0.,-0.8405022|PG=CS [SG(C1H1O2)]||@


  ON THE CHOICE OF THE CORRECT LANGUAGE -
 I SPEAK SPANISH TO GOD, ITALIAN TO WOMEN,
 FRENCH TO MEN, AND GERMAN TO MY HORSE.
          -- CHARLES V
 Job cpu time:       0 days  0 hours 32 minutes 18.0 seconds.
 Elapsed time:       0 days  0 hours 31 minutes 47.3 seconds.
 File lengths (MBytes):  RWF=   2790 Int=      0 D2E=      0 Chk=      4 Scr=      1
 Normal termination of Gaussian 16 at Mon Jul 23 15:12:52 2018.
