 Entering Link 1 = C:\G16W\l1.exe PID=      7792.
  
 Copyright (c) 1988-2017, Gaussian, Inc.  All Rights Reserved.
  
 This is part of the Gaussian(R) 16 program.  It is based on
 the Gaussian(R) 09 system (copyright 2009, Gaussian, Inc.),
 the Gaussian(R) 03 system (copyright 2003, Gaussian, Inc.),
 the Gaussian(R) 98 system (copyright 1998, Gaussian, Inc.),
 the Gaussian(R) 94 system (copyright 1995, Gaussian, Inc.),
 the Gaussian 92(TM) system (copyright 1992, Gaussian, Inc.),
 the Gaussian 90(TM) system (copyright 1990, Gaussian, Inc.),
 the Gaussian 88(TM) system (copyright 1988, Gaussian, Inc.),
 the Gaussian 86(TM) system (copyright 1986, Carnegie Mellon
 University), and the Gaussian 82(TM) system (copyright 1983,
 Carnegie Mellon University). Gaussian is a federally registered
 trademark of Gaussian, Inc.
  
 This software contains proprietary and confidential information,
 including trade secrets, belonging to Gaussian, Inc.
  
 This software is provided under written license and may be
 used, copied, transmitted, or stored only in accord with that
 written license.
  
 The following legend is applicable only to US Government
 contracts under FAR:
  
                    RESTRICTED RIGHTS LEGEND
  
 Use, reproduction and disclosure by the US Government is
 subject to restrictions as set forth in subparagraphs (a)
 and (c) of the Commercial Computer Software - Restricted
 Rights clause in FAR 52.227-19.
  
 Gaussian, Inc.
 340 Quinnipiac St., Bldg. 40, Wallingford CT 06492
  
  
 ---------------------------------------------------------------
 Warning -- This program may not be used in any manner that
 competes with the business of Gaussian, Inc. or will provide
 assistance to any competitor of Gaussian, Inc.  The licensee
 of this program is prohibited from giving any competitor of
 Gaussian, Inc. access to this program.  By using this program,
 the user acknowledges that Gaussian, Inc. is engaged in the
 business of creating and licensing software in the field of
 computational chemistry and represents and warrants to the
 licensee that it is not a competitor of Gaussian, Inc. and that
 it will not use this program in any manner prohibited above.
 ---------------------------------------------------------------
  

 Cite this work as:
 Gaussian 16, Revision B.01,
 M. J. Frisch, G. W. Trucks, H. B. Schlegel, G. E. Scuseria, 
 M. A. Robb, J. R. Cheeseman, G. Scalmani, V. Barone, 
 G. A. Petersson, H. Nakatsuji, X. Li, M. Caricato, A. V. Marenich, 
 J. Bloino, B. G. Janesko, R. Gomperts, B. Mennucci, H. P. Hratchian, 
 J. V. Ortiz, A. F. Izmaylov, J. L. Sonnenberg, D. Williams-Young, 
 F. Ding, F. Lipparini, F. Egidi, J. Goings, B. Peng, A. Petrone, 
 T. Henderson, D. Ranasinghe, V. G. Zakrzewski, J. Gao, N. Rega, 
 G. Zheng, W. Liang, M. Hada, M. Ehara, K. Toyota, R. Fukuda, 
 J. Hasegawa, M. Ishida, T. Nakajima, Y. Honda, O. Kitao, H. Nakai, 
 T. Vreven, K. Throssell, J. A. Montgomery, Jr., J. E. Peralta, 
 F. Ogliaro, M. J. Bearpark, J. J. Heyd, E. N. Brothers, K. N. Kudin, 
 V. N. Staroverov, T. A. Keith, R. Kobayashi, J. Normand, 
 K. Raghavachari, A. P. Rendell, J. C. Burant, S. S. Iyengar, 
 J. Tomasi, M. Cossi, J. M. Millam, M. Klene, C. Adamo, R. Cammi, 
 J. W. Ochterski, R. L. Martin, K. Morokuma, O. Farkas, 
 J. B. Foresman, and D. J. Fox, Gaussian, Inc., Wallingford CT, 2016.
 
 ******************************************
 Gaussian 16:  EM64W-G16RevB.01 16-Dec-2017
                23-Jul-2018 
 ******************************************
 %nproc=2
 Will use up to    2 processors via shared memory.
 %mem=4gb
 -----------------------------------------------
 # MP2 Aug-cc-pvTZ opt=(noeigen,calcfc,z-matrix)
 -----------------------------------------------
 1/10=4,11=1,18=40,38=1/1,3;
 2/12=2,17=6,18=5,29=3,40=1/2;
 3/5=16,6=1,7=10,11=9,25=1,30=1,71=2,140=1/1,2,3;
 4//1;
 5/5=2,38=5/2;
 8/6=3,8=1,10=1,19=11,30=-1/1;
 9/15=3,16=-3/6;
 11/6=1,8=1,15=11,17=12,24=-1,27=1,28=-2,29=300,32=6,42=3/1,2,10;
 10/6=2,21=1/2;
 8/6=4,8=1,10=1,19=11,30=-1/11,4;
 10/5=1,20=4/2;
 11/12=2,14=11,16=1,17=2,28=-2,42=3,76=2/2,10,12;
 6/7=2,8=2,9=2,10=2/1;
 7/10=1,12=2,25=1,44=2/1,2,3,16;
 1/10=4,11=1,18=40/3(2);
 2/29=3/2;
 99//99;
 2/29=3/2;
 3/5=16,6=1,7=10,11=9,25=1,30=1,71=1/1,2,3;
 4/5=5,16=3,69=1/1;
 5/5=2,38=5/2;
 8/6=4,10=1/1;
 9/15=2,16=-3/6;
 10/5=1/2;
 7/12=2/1,2,3,16;
 1/11=1,18=40/3(-8);
 2/29=3/2;
 6/7=2,8=2,9=2,10=2/1;
 99/9=10/99;
 -------
 Formate
 -------
 Symbolic Z-matrix:
 Charge = -1 Multiplicity = 1
 C
 O                    1    R1
 O                    1    R1       2    A1
 H                    1    R2       2    A2       3     180.     0
       Variables:
  R1                    1.25827                  
  R2                    1.12525                  
  A1                  130.18115                  
       Constants:
  A2                  107.5                      
 

 GradGradGradGradGradGradGradGradGradGradGradGradGradGradGradGradGradGrad
 Berny optimization.
 Initialization pass.
                       ----------------------------
                       !    Initial Parameters    !
                       ! (Angstroms and Degrees)  !
 ----------------------                            ----------------------
 !      Name          Value   Derivative information (Atomic Units)     !
 ------------------------------------------------------------------------
 !       R1          1.2583   calculate D2E/DX2 analytically            !
 !       R2          1.1253   calculate D2E/DX2 analytically            !
 !       A1        130.1811   calculate D2E/DX2 analytically            !
 !       A2        107.5      frozen, calculate D2E/DX2 analytically    !
 ------------------------------------------------------------------------
 Trust Radius=3.00D-01 FncErr=1.00D-07 GrdErr=1.00D-07 EigMax=2.50D+02 EigMin=1.00D-04
 Number of steps in this run=     20 maximum allowed number of steps=    100.
 GradGradGradGradGradGradGradGradGradGradGradGradGradGradGradGradGradGrad

 ---------------------------------------------------------------------------------------------------
                            Z-MATRIX (ANGSTROMS AND DEGREES)
   CD    Cent   Atom    N1       Length/X        N2       Alpha/Y        N3        Beta/Z          J
 ---------------------------------------------------------------------------------------------------
      1      1  C 
      2      2  O        1   1.258269(     1)
      3      3  O        1   1.258269(     2)      2  130.181(     4)
      4      4  H        1   1.125251(     3)      2  107.500(     5)      3  180.000(     6)      0
 ---------------------------------------------------------------------------------------------------
                         Z-Matrix orientation:                         
 ---------------------------------------------------------------------
 Center     Atomic      Atomic             Coordinates (Angstroms)
 Number     Number       Type             X           Y           Z
 ---------------------------------------------------------------------
      1          6           0        0.000000    0.000000    0.000000
      2          8           0        0.000000    0.000000    1.258269
      3          8           0        0.961328    0.000000   -0.811843
      4          1           0       -1.073171    0.000000   -0.338370
 ---------------------------------------------------------------------
                    Distance matrix (angstroms):
                    1          2          3          4
     1  C    0.000000
     2  O    1.258269   0.000000
     3  O    1.258269   2.282437   0.000000
     4  H    1.125251   1.923786   2.088867   0.000000
 Stoichiometry    CHO2(1-)
 Framework group  CS[SG(CHO2)]
 Deg. of freedom     5
 Full point group                 CS      NOp   2
 Largest Abelian subgroup         CS      NOp   2
 Largest concise Abelian subgroup C1      NOp   1
                         Standard orientation:                         
 ---------------------------------------------------------------------
 Center     Atomic      Atomic             Coordinates (Angstroms)
 Number     Number       Type             X           Y           Z
 ---------------------------------------------------------------------
      1          6           0        0.000000    0.320218    0.000000
      2          8           0       -1.130555   -0.232129    0.000000
      3          8           0        1.151439   -0.187159    0.000000
      4          1           0       -0.167068    1.432997    0.000000
 ---------------------------------------------------------------------
 Rotational constants (GHZ):         108.2131306          12.1237896          10.9023334
 Standard basis: Aug-CC-pVTZ (5D, 7F)
 There are   129 symmetry adapted cartesian basis functions of A'  symmetry.
 There are    61 symmetry adapted cartesian basis functions of A"  symmetry.
 There are   106 symmetry adapted basis functions of A'  symmetry.
 There are    55 symmetry adapted basis functions of A"  symmetry.
   161 basis functions,   243 primitive gaussians,   190 cartesian basis functions
    12 alpha electrons       12 beta electrons
       nuclear repulsion energy        62.2608207389 Hartrees.
 NAtoms=    4 NActive=    4 NUniq=    4 SFac= 1.00D+00 NAtFMM=   60 NAOKFM=F Big=F
 Integral buffers will be    131072 words long.
 Raffenetti 1 integral format.
 Two-electron integral symmetry is turned on.
 One-electron integrals computed using PRISM.
 NBasis=   161 RedAO= T EigKep=  9.74D-05  NBF=   106    55
 NBsUse=   161 1.00D-06 EigRej= -1.00D+00 NBFU=   106    55
 ExpMin= 2.53D-02 ExpMax= 1.53D+04 ExpMxC= 5.22D+02 IAcc=3 IRadAn=         5 AccDes= 0.00D+00
 Harris functional with IExCor=  205 and IRadAn=       5 diagonalized for initial guess.
 HarFok:  IExCor=  205 AccDes= 0.00D+00 IRadAn=         5 IDoV= 1 UseB2=F ITyADJ=14
 ICtDFT=  3500011 ScaDFX=  1.000000  1.000000  1.000000  1.000000
 FoFCou: FMM=F IPFlag=           0 FMFlag=      100000 FMFlg1=           0
         NFxFlg=           0 DoJE=T BraDBF=F KetDBF=T FulRan=T
         wScrn=  0.000000 ICntrl=       500 IOpCl=  0 I1Cent=   200000004 NGrid=           0
         NMat0=    1 NMatS0=      1 NMatT0=    0 NMatD0=    1 NMtDS0=    0 NMtDT0=    0
 Petite list used in FoFCou.
 Initial guess orbital symmetries:
       Occupied  (A') (A') (A') (A') (A') (A') (A') (A') (A") (A")
                 (A') (A')
       Virtual   (A") (A') (A') (A') (A") (A') (A') (A') (A') (A")
                 (A") (A') (A') (A') (A") (A') (A') (A') (A") (A')
                 (A') (A") (A') (A') (A") (A') (A') (A') (A') (A")
                 (A') (A') (A") (A") (A') (A") (A") (A') (A') (A')
                 (A') (A') (A") (A") (A') (A") (A') (A') (A') (A")
                 (A') (A') (A") (A') (A') (A") (A") (A') (A') (A")
                 (A') (A') (A') (A") (A') (A') (A') (A") (A') (A")
                 (A") (A") (A') (A") (A') (A') (A') (A') (A') (A")
                 (A') (A") (A') (A") (A') (A') (A') (A") (A") (A')
                 (A') (A') (A") (A") (A') (A') (A') (A") (A") (A')
                 (A") (A') (A") (A') (A') (A') (A') (A") (A') (A')
                 (A") (A') (A") (A") (A') (A') (A") (A') (A') (A')
                 (A') (A') (A") (A') (A") (A') (A') (A") (A") (A')
                 (A") (A') (A") (A') (A') (A") (A") (A') (A") (A')
                 (A") (A') (A') (A') (A') (A') (A') (A') (A')
 The electronic state of the initial guess is 1-A'.
 Keep R1 ints in memory in symmetry-blocked form, NReq=128070129.
 Requested convergence on RMS density matrix=1.00D-08 within 128 cycles.
 Requested convergence on MAX density matrix=1.00D-06.
 Requested convergence on             energy=1.00D-06.
 No special actions if energy rises.
 SCF Done:  E(RHF) =  -188.270489207     A.U. after   12 cycles
            NFock= 12  Conv=0.85D-08     -V/T= 2.0017
 ExpMin= 2.53D-02 ExpMax= 1.53D+04 ExpMxC= 5.22D+02 IAcc=3 IRadAn=         5 AccDes= 0.00D+00
 HarFok:  IExCor=  205 AccDes= 0.00D+00 IRadAn=         5 IDoV=-2 UseB2=F ITyADJ=14
 ICtDFT= 12500011 ScaDFX=  1.000000  1.000000  1.000000  1.000000
 Range of M.O.s used for correlation:     4   161
 NBasis=   161 NAE=    12 NBE=    12 NFC=     3 NFV=     0
 NROrb=    158 NOA=     9 NOB=     9 NVA=   149 NVB=   149

 **** Warning!!: The largest alpha MO coefficient is  0.27107199D+02

 Disk-based method using ON**2 memory for  9 occupieds at a time.
 Permanent disk used for amplitudes=     3924660 words.
 Estimated scratch disk usage=   113146432 words.
 Actual    scratch disk usage=   109232192 words.
 JobTyp=1 Pass  1:  I=   4 to  12 NPSUse=  2 ParTrn=T ParDer=T DoDerP=T.
 (rs|ai) integrals will be sorted in core.
 Spin components of T(2) and E(2):
     alpha-alpha T2 =       0.2476109952D-01 E2=     -0.8623935103D-01
     alpha-beta  T2 =       0.1297272845D+00 E2=     -0.4856934886D+00
     beta-beta   T2 =       0.2476109952D-01 E2=     -0.8623935103D-01
 ANorm=    0.1085932541D+01
 E2 =    -0.6581721906D+00 EUMP2 =    -0.18892866139786D+03
 G2DrvN: will do     5 centers at a time, making    1 passes.
 Calling FoFCou, ICntrl=  3107 FMM=F I1Cent=   0 AccDes= 0.00D+00.
 End of G2Drv F.D. properties file   721 does not exist.
 End of G2Drv F.D. properties file   722 does not exist.
 End of G2Drv F.D. properties file   788 does not exist.
          IDoAtm=1111
          Differentiating once with respect to electric field.
                with respect to dipole field.
          Differentiating once with respect to nuclear coordinates.
 Keep R1 ints in memory in symmetry-blocked form, NReq=128071153.
          There are    15 degrees of freedom in the 1st order CPHF.  IDoFFX=6 NUNeed=    15.
     12 vectors produced by pass  0 Test12= 1.19D-14 6.67D-09 XBig12= 8.97D+00 1.35D+00.
 AX will form    12 AO Fock derivatives at one time.
     12 vectors produced by pass  1 Test12= 1.19D-14 6.67D-09 XBig12= 1.13D+00 2.71D-01.
     12 vectors produced by pass  2 Test12= 1.19D-14 6.67D-09 XBig12= 3.15D-02 3.90D-02.
     12 vectors produced by pass  3 Test12= 1.19D-14 6.67D-09 XBig12= 8.33D-04 6.38D-03.
     12 vectors produced by pass  4 Test12= 1.19D-14 6.67D-09 XBig12= 1.43D-05 8.67D-04.
     12 vectors produced by pass  5 Test12= 1.19D-14 6.67D-09 XBig12= 2.24D-07 1.41D-04.
     12 vectors produced by pass  6 Test12= 1.19D-14 6.67D-09 XBig12= 2.12D-09 1.48D-05.
     10 vectors produced by pass  7 Test12= 1.19D-14 6.67D-09 XBig12= 2.16D-11 9.93D-07.
      3 vectors produced by pass  8 Test12= 1.19D-14 6.67D-09 XBig12= 1.77D-13 8.59D-08.
      1 vectors produced by pass  9 Test12= 1.19D-14 6.67D-09 XBig12= 1.69D-15 9.95D-09.
 InvSVY:  IOpt=1 It=  1 EMax= 1.11D-15
 Solved reduced A of dimension    98 with    12 vectors.
 End of Minotr F.D. properties file   721 does not exist.
 End of Minotr F.D. properties file   722 does not exist.
 End of Minotr F.D. properties file   788 does not exist.
 MDV=   536870912.
 Form MO integral derivatives with frozen-active canonical formalism.
 Discarding MO integrals.
 Reordered first order wavefunction length =      6393888
 In DefCFB: NBatch=  1 ICI= 12 ICA=149 LFMax= 50
            Large arrays: LIAPS=   218779680 LIARS=   130792200 words.
 Semi-Direct transformation.
 ModeAB=           2 MOrb=            12 LenV=     536063119
 LASXX=     23759367 LTotXX=    23759367 LenRXX=    23759367
 LTotAB=    24195042 MaxLAS=    35056140 LenRXY=    35056140
 NonZer=    47518734 LenScr=    72043008 LnRSAI=           0
 LnScr1=           0 LExtra=           0 Total=    130858515
 MaxDsk=          -1 SrtSym=           F ITran=            4
 JobTyp=0 Pass  1:  I=   1 to  12.
 (rs|ai) integrals will be sorted in core.
 Spin components of T(2) and E(2):
     alpha-alpha T2 =       0.2476109952D-01 E2=     -0.8623935103D-01
     alpha-beta  T2 =       0.1297272845D+00 E2=     -0.4856934886D+00
     beta-beta   T2 =       0.2476109952D-01 E2=     -0.8623935103D-01
 ANorm=    0.1535740527D+01
 E2 =    -0.6581721906D+00 EUMP2 =    -0.18892866139786D+03
          IDoAtm=1111
          Differentiating once with respect to electric field.
                with respect to dipole field.
          Differentiating once with respect to nuclear coordinates.
          There are     1 degrees of freedom in the 1st order CPHF.  IDoFFX=0 NUNeed=     1.
 LinEq1:  Iter=  0 NonCon=     1 RMS=6.49D-03 Max=1.02D-01 NDo=     1
 LinEq1:  Iter=  1 NonCon=     1 RMS=1.57D-03 Max=1.66D-02 NDo=     1
 LinEq1:  Iter=  2 NonCon=     1 RMS=5.58D-04 Max=6.69D-03 NDo=     1
 LinEq1:  Iter=  3 NonCon=     1 RMS=2.02D-04 Max=2.10D-03 NDo=     1
 LinEq1:  Iter=  4 NonCon=     1 RMS=5.99D-05 Max=7.60D-04 NDo=     1
 LinEq1:  Iter=  5 NonCon=     1 RMS=1.18D-05 Max=1.20D-04 NDo=     1
 LinEq1:  Iter=  6 NonCon=     1 RMS=2.61D-06 Max=2.98D-05 NDo=     1
 LinEq1:  Iter=  7 NonCon=     1 RMS=8.25D-07 Max=1.35D-05 NDo=     1
 LinEq1:  Iter=  8 NonCon=     1 RMS=3.87D-07 Max=4.24D-06 NDo=     1
 LinEq1:  Iter=  9 NonCon=     1 RMS=9.44D-08 Max=1.11D-06 NDo=     1
 LinEq1:  Iter= 10 NonCon=     1 RMS=2.13D-08 Max=2.23D-07 NDo=     1
 LinEq1:  Iter= 11 NonCon=     1 RMS=3.95D-09 Max=4.41D-08 NDo=     1
 LinEq1:  Iter= 12 NonCon=     1 RMS=6.67D-10 Max=9.06D-09 NDo=     1
 LinEq1:  Iter= 13 NonCon=     1 RMS=8.39D-11 Max=1.23D-09 NDo=     1
 LinEq1:  Iter= 14 NonCon=     0 RMS=1.16D-11 Max=1.06D-10 NDo=     1
 Linear equations converged to 1.000D-10 1.000D-09 after    14 iterations.
 End of Minotr F.D. properties file   721 does not exist.
 End of Minotr F.D. properties file   722 does not exist.
 End of Minotr F.D. properties file   788 does not exist.
 Symmetrizing basis deriv contribution to polar:
 IMax=3 JMax=2 DiffMx= 0.00D+00
 G2DrvN: will do     5 centers at a time, making    1 passes.
 Calling FoFCou, ICntrl=  3107 FMM=F I1Cent=   0 AccDes= 0.00D+00.
 End of G2Drv F.D. properties file   721 does not exist.
 End of G2Drv F.D. properties file   722 does not exist.
 End of G2Drv F.D. properties file   788 does not exist.
 R2 and R3 integrals will be kept in memory, NReq=   332743010.
 DD1Dir will call FoFMem   1 times, MxPair=       156
 NAB=    78 NAA=     0 NBB=     0.
 Discarding MO integrals.

 **********************************************************************

            Population analysis using the SCF Density.

 **********************************************************************

 Orbital symmetries:
       Occupied  (A') (A') (A') (A') (A') (A') (A') (A') (A") (A')
                 (A') (A")
       Virtual   (A') (A') (A") (A') (A') (A') (A') (A") (A") (A')
                 (A') (A') (A") (A') (A") (A') (A') (A') (A') (A")
                 (A") (A') (A') (A") (A') (A') (A') (A') (A') (A")
                 (A') (A') (A") (A') (A") (A") (A') (A') (A") (A')
                 (A') (A") (A') (A') (A") (A') (A") (A') (A') (A")
                 (A') (A") (A') (A') (A') (A") (A') (A") (A') (A")
                 (A') (A') (A') (A") (A') (A') (A') (A") (A') (A")
                 (A") (A") (A') (A") (A') (A') (A') (A') (A') (A")
                 (A') (A") (A') (A") (A') (A') (A') (A") (A") (A')
                 (A') (A') (A") (A") (A') (A') (A") (A') (A") (A')
                 (A') (A") (A') (A") (A') (A') (A") (A') (A') (A')
                 (A") (A') (A") (A') (A") (A") (A') (A') (A') (A')
                 (A') (A') (A") (A') (A") (A') (A') (A") (A") (A')
                 (A") (A') (A") (A") (A') (A') (A') (A") (A') (A")
                 (A") (A') (A') (A') (A') (A') (A') (A') (A')
 The electronic state is 1-A'.
 Alpha  occ. eigenvalues --  -20.29231 -20.28597 -11.12519  -1.15402  -1.05927
 Alpha  occ. eigenvalues --   -0.55659  -0.42882  -0.38590  -0.33974  -0.20953
 Alpha  occ. eigenvalues --   -0.18751  -0.18678
 Alpha virt. eigenvalues --    0.14397   0.21292   0.21406   0.21696   0.28068
 Alpha virt. eigenvalues --    0.31823   0.32750   0.33849   0.36473   0.36907
 Alpha virt. eigenvalues --    0.39276   0.41825   0.42164   0.45671   0.49154
 Alpha virt. eigenvalues --    0.49529   0.52064   0.54334   0.58086   0.59047
 Alpha virt. eigenvalues --    0.62142   0.68757   0.70612   0.72284   0.78044
 Alpha virt. eigenvalues --    0.82027   0.87043   0.91099   0.94128   0.96341
 Alpha virt. eigenvalues --    0.99925   1.02883   1.04896   1.05511   1.06307
 Alpha virt. eigenvalues --    1.09618   1.11262   1.12647   1.12909   1.16071
 Alpha virt. eigenvalues --    1.21448   1.21471   1.22551   1.26170   1.27798
 Alpha virt. eigenvalues --    1.28032   1.32464   1.38175   1.41550   1.44123
 Alpha virt. eigenvalues --    1.47332   1.55650   1.57076   1.63617   1.65957
 Alpha virt. eigenvalues --    1.70127   1.76769   1.77506   1.81110   1.87608
 Alpha virt. eigenvalues --    1.91717   1.98682   2.10956   2.13308   2.20355
 Alpha virt. eigenvalues --    2.26651   2.41507   2.41583   2.45597   2.50076
 Alpha virt. eigenvalues --    2.57800   2.61888   2.63970   2.64321   2.64807
 Alpha virt. eigenvalues --    2.69369   2.72548   2.73073   2.79834   2.81589
 Alpha virt. eigenvalues --    2.84770   2.87180   2.90868   2.91932   2.98233
 Alpha virt. eigenvalues --    3.09926   3.13056   3.14662   3.15863   3.21745
 Alpha virt. eigenvalues --    3.33654   3.43396   3.43497   3.56062   3.64376
 Alpha virt. eigenvalues --    3.78600   3.80031   3.82002   4.04575   4.08798
 Alpha virt. eigenvalues --    4.20992   4.26726   4.26743   4.30073   4.34635
 Alpha virt. eigenvalues --    4.46067   4.53285   4.53508   4.73076   4.80907
 Alpha virt. eigenvalues --    4.87184   5.12044   5.22896   5.25473   5.34166
 Alpha virt. eigenvalues --    5.39423   5.42836   5.52641   5.82427   6.12354
 Alpha virt. eigenvalues --    6.51939   6.57923   6.84555   6.85731   6.87493
 Alpha virt. eigenvalues --    6.87513   7.07363   7.08685   7.10639   7.20533
 Alpha virt. eigenvalues --    7.30837   7.32232   7.38168   7.44154   7.44469
 Alpha virt. eigenvalues --    7.48041   7.53219   7.55132   7.77808   7.79567
 Alpha virt. eigenvalues --    7.85270   7.86162   7.94104   8.02300   8.16273
 Alpha virt. eigenvalues --    8.23181  13.57595  15.35809  16.63057
          Condensed to atoms (all electrons):
               1          2          3          4
     1  C    4.891073   0.405448   0.431684   0.284599
     2  O    0.405448   8.449393  -0.112271  -0.050638
     3  O    0.431684  -0.112271   8.407035  -0.040265
     4  H    0.284599  -0.050638  -0.040265   0.415384
 Mulliken charges:
               1
     1  C   -0.012804
     2  O   -0.691932
     3  O   -0.686184
     4  H    0.390920
 Sum of Mulliken charges =  -1.00000
 Mulliken charges with hydrogens summed into heavy atoms:
               1
     1  C    0.378116
     2  O   -0.691932
     3  O   -0.686184
 APT charges:
               1
     1  C    1.238301
     2  O   -1.026253
     3  O   -1.015777
     4  H   -0.196271
 Sum of APT charges =  -1.00000
 APT charges with hydrogens summed into heavy atoms:
               1
     1  C    1.042030
     2  O   -1.026253
     3  O   -1.015777
 Electronic spatial extent (au):  <R**2>=            137.7225
 Charge=             -1.0000 electrons
 Dipole moment (field-independent basis, Debye):
    X=             -0.0668    Y=              1.8626    Z=              0.0000  Tot=              1.8638
 Quadrupole moment (field-independent basis, Debye-Ang):
   XX=            -29.7204   YY=            -20.1742   ZZ=            -18.9189
   XY=             -0.3929   XZ=              0.0000   YZ=              0.0000
 Traceless Quadrupole moment (field-independent basis, Debye-Ang):
   XX=             -6.7826   YY=              2.7636   ZZ=              4.0189
   XY=             -0.3929   XZ=              0.0000   YZ=              0.0000
 Octapole moment (field-independent basis, Debye-Ang**2):
  XXX=             -0.0882  YYY=             -0.9738  ZZZ=              0.0000  XYY=             -0.0782
  XXY=              1.0110  XXZ=              0.0000  XZZ=              0.0518  YZZ=             -0.2329
  YYZ=              0.0000  XYZ=              0.0000
 Hexadecapole moment (field-independent basis, Debye-Ang**3):
 XXXX=           -138.8162 YYYY=            -42.8297 ZZZZ=            -19.8257 XXXY=             -0.8219
 XXXZ=              0.0000 YYYX=             -0.8921 YYYZ=              0.0000 ZZZX=              0.0000
 ZZZY=              0.0000 XXYY=            -28.3107 XXZZ=            -25.0144 YYZZ=            -10.2501
 XXYZ=              0.0000 YYXZ=              0.0000 ZZXY=             -0.1493
 N-N= 6.226082073893D+01 E-N=-5.765884663726D+02  KE= 1.879490942371D+02
 Symmetry A'   KE= 1.803293102267D+02
 Symmetry A"   KE= 7.619784010400D+00
  Exact polarizability:  41.413  -0.171  35.718   0.000   0.000  23.438
 Approx polarizability:  27.146  -0.258  22.981   0.000   0.000  18.522
 Calling FoFJK, ICntrl=  10100127 FMM=F ISym2X=1 I1Cent= 0 IOpClX= 0 NMat=1 NMatS=1 NMatT=0.
 ***** Axes restored to original set *****
 -------------------------------------------------------------------
 Center     Atomic                   Forces (Hartrees/Bohr)
 Number     Number              X              Y              Z
 -------------------------------------------------------------------
      1        6          -0.003379168    0.000000000    0.009076571
      2        8           0.009191925    0.000000000    0.009652579
      3        8          -0.010591183    0.000000000   -0.000762913
      4        1           0.004778426    0.000000000   -0.017966236
 -------------------------------------------------------------------
 Cartesian Forces:  Max     0.017966236 RMS     0.007798723
 -----------------------------------------------------------------------------------------------
                       Internal Coordinate Forces (Hartree/Bohr or radian)
  Cent   Atom   N1       Length/X         N2         Alpha/Y        N3         Beta/Z          J
 -----------------------------------------------------------------------------------------------
      1  C 
      2  O        1   0.009653(     1)
      3  O        1  -0.007600(     2)      2   0.017635(     4)
      4  H        1   0.000845(     3)      2   0.039491(     5)      3   0.000000(     6)     0
 -----------------------------------------------------------------------------------------------
 Internal  Forces:  Max     0.039490967 RMS     0.018358253

 GradGradGradGradGradGradGradGradGradGradGradGradGradGradGradGradGradGrad
 Berny optimization.
 Search for a local minimum.
 Step number   1 out of a maximum of   20
 All quantities printed in internal units (Hartrees-Bohrs-Radians)
 Second derivative matrix not updated -- analytic derivatives used.
 The second derivative matrix:
                          R1        R2        A1        A2
           R1           1.42076
           R2           0.07326   0.26414
           A1           0.07769  -0.03885   0.45931
           A2           0.03199   0.00696   0.11957   0.30498
 ITU=  0
     Eigenvalues ---    0.25018   0.46283   1.431191000.00000
 RFO step:  Lambda=-6.98806312D-04 EMin= 2.50182288D-01
 Linear search not attempted -- first point.
 Variable       Old X    -DE/DX   Delta X   Delta X   Delta X     New X
                                 (Linear)    (Quad)   (Total)
    R1        2.37778   0.00205   0.00000  -0.00118  -0.00118   2.37660
    R2        2.12642   0.00085   0.00000   0.00929   0.00929   2.13570
    A1        2.27209   0.01763   0.00000   0.03932   0.03932   2.31141
    A2        1.87623   0.03949   0.00000   0.00000   0.00000   1.87623
         Item               Value     Threshold  Converged?
 Maximum Force            0.017635     0.000450     NO 
 RMS     Force            0.010262     0.000300     NO 
 Maximum Displacement     0.039320     0.001800     NO 
 RMS     Displacement     0.020210     0.001200     NO 
 Predicted change in Energy=-3.499749D-04
 GradGradGradGradGradGradGradGradGradGradGradGradGradGradGradGradGradGrad

 ---------------------------------------------------------------------------------------------------
                            Z-MATRIX (ANGSTROMS AND DEGREES)
   CD    Cent   Atom    N1       Length/X        N2       Alpha/Y        N3        Beta/Z          J
 ---------------------------------------------------------------------------------------------------
      1      1  C 
      2      2  O        1   1.257643(     1)
      3      3  O        1   1.257643(     2)      2  132.434(     4)
      4      4  H        1   1.130166(     3)      2  107.500(     5)      3  180.000(     6)      0
 ---------------------------------------------------------------------------------------------------
                         Z-Matrix orientation:                         
 ---------------------------------------------------------------------
 Center     Atomic      Atomic             Coordinates (Angstroms)
 Number     Number       Type             X           Y           Z
 ---------------------------------------------------------------------
      1          6           0        0.000000    0.000000    0.000000
      2          8           0        0.000000    0.000000    1.257643
      3          8           0        0.928210    0.000000   -0.848583
      4          1           0       -1.077859    0.000000   -0.339847
 ---------------------------------------------------------------------
                    Distance matrix (angstroms):
                    1          2          3          4
     1  C    0.000000
     2  O    1.257643   0.000000
     3  O    1.257643   2.301687   0.000000
     4  H    1.130166   1.927111   2.069571   0.000000
 Stoichiometry    CHO2(1-)
 Framework group  CS[SG(CHO2)]
 Deg. of freedom     5
 Full point group                 CS      NOp   2
 Largest Abelian subgroup         CS      NOp   2
 Largest concise Abelian subgroup C1      NOp   1
                         Standard orientation:                         
 ---------------------------------------------------------------------
 Center     Atomic      Atomic             Coordinates (Angstroms)
 Number     Number       Type             X           Y           Z
 ---------------------------------------------------------------------
      1          6           0        0.000000    0.304022    0.000000
      2          8           0       -1.141692   -0.223429    0.000000
      3          8           0        1.159634   -0.182717    0.000000
      4          1           0       -0.143536    1.425036    0.000000
 ---------------------------------------------------------------------
 Rotational constants (GHZ):         113.8846815          11.9236542          10.7935739
 Standard basis: Aug-CC-pVTZ (5D, 7F)
 There are   129 symmetry adapted cartesian basis functions of A'  symmetry.
 There are    61 symmetry adapted cartesian basis functions of A"  symmetry.
 There are   106 symmetry adapted basis functions of A'  symmetry.
 There are    55 symmetry adapted basis functions of A"  symmetry.
   161 basis functions,   243 primitive gaussians,   190 cartesian basis functions
    12 alpha electrons       12 beta electrons
       nuclear repulsion energy        62.1596562150 Hartrees.
 NAtoms=    4 NActive=    4 NUniq=    4 SFac= 1.00D+00 NAtFMM=   60 NAOKFM=F Big=F
 Integral buffers will be    131072 words long.
 Raffenetti 1 integral format.
 Two-electron integral symmetry is turned on.
 One-electron integrals computed using PRISM.
 NBasis=   161 RedAO= T EigKep=  9.99D-05  NBF=   106    55
 NBsUse=   161 1.00D-06 EigRej= -1.00D+00 NBFU=   106    55
 Initial guess from the checkpoint file:  "C:\Users\Garrett\Downloads\NanoclusterOutput\Gau-7792.chk"
 B after Tr=     0.000000    0.000000    0.000000
         Rot=    0.999999    0.000000    0.000000    0.001614 Ang=   0.18 deg.
 Initial guess orbital symmetries:
       Occupied  (A') (A') (A') (A') (A') (A') (A') (A') (A") (A')
                 (A') (A")
       Virtual   (A') (A') (A") (A') (A') (A') (A') (A") (A") (A')
                 (A') (A') (A") (A') (A") (A') (A') (A') (A') (A")
                 (A") (A') (A') (A") (A') (A') (A') (A') (A') (A")
                 (A') (A') (A") (A') (A") (A") (A') (A') (A") (A')
                 (A') (A") (A') (A') (A") (A') (A") (A') (A') (A")
                 (A') (A") (A') (A') (A') (A") (A') (A") (A') (A")
                 (A') (A') (A') (A") (A') (A') (A') (A") (A') (A")
                 (A") (A") (A') (A") (A') (A') (A') (A') (A') (A")
                 (A') (A") (A') (A") (A') (A') (A') (A") (A") (A')
                 (A') (A') (A") (A") (A') (A') (A") (A') (A") (A')
                 (A') (A") (A') (A") (A') (A') (A") (A') (A') (A')
                 (A") (A') (A") (A') (A") (A") (A') (A') (A') (A')
                 (A') (A') (A") (A') (A") (A') (A') (A") (A") (A')
                 (A") (A') (A") (A") (A') (A') (A') (A") (A') (A")
                 (A") (A') (A') (A') (A') (A') (A') (A') (A')
 ExpMin= 2.53D-02 ExpMax= 1.53D+04 ExpMxC= 5.22D+02 IAcc=3 IRadAn=         5 AccDes= 0.00D+00
 Harris functional with IExCor=  205 and IRadAn=       5 diagonalized for initial guess.
 HarFok:  IExCor=  205 AccDes= 0.00D+00 IRadAn=         5 IDoV= 1 UseB2=F ITyADJ=14
 ICtDFT=  3500011 ScaDFX=  1.000000  1.000000  1.000000  1.000000
 FoFCou: FMM=F IPFlag=           0 FMFlag=      100000 FMFlg1=           0
         NFxFlg=           0 DoJE=T BraDBF=F KetDBF=T FulRan=T
         wScrn=  0.000000 ICntrl=       500 IOpCl=  0 I1Cent=   200000004 NGrid=           0
         NMat0=    1 NMatS0=      1 NMatT0=    0 NMatD0=    1 NMtDS0=    0 NMtDT0=    0
 Petite list used in FoFCou.
 Keep R1 ints in memory in symmetry-blocked form, NReq=128070129.
 Requested convergence on RMS density matrix=1.00D-08 within 128 cycles.
 Requested convergence on MAX density matrix=1.00D-06.
 Requested convergence on             energy=1.00D-06.
 No special actions if energy rises.
 SCF Done:  E(RHF) =  -188.270862128     A.U. after   10 cycles
            NFock= 10  Conv=0.99D-08     -V/T= 2.0017
 ExpMin= 2.53D-02 ExpMax= 1.53D+04 ExpMxC= 5.22D+02 IAcc=3 IRadAn=         5 AccDes= 0.00D+00
 HarFok:  IExCor=  205 AccDes= 0.00D+00 IRadAn=         5 IDoV=-2 UseB2=F ITyADJ=14
 ICtDFT= 12500011 ScaDFX=  1.000000  1.000000  1.000000  1.000000
 Range of M.O.s used for correlation:     4   161
 NBasis=   161 NAE=    12 NBE=    12 NFC=     3 NFV=     0
 NROrb=    158 NOA=     9 NOB=     9 NVA=   149 NVB=   149

 **** Warning!!: The largest alpha MO coefficient is  0.28585819D+02

 Fully direct method using O(ONN) memory.
 JobTyp=1 Pass  1:  I=   4 to  12 NPSUse=  2 ParTrn=T ParDer=T DoDerP=T.
 Spin components of T(2) and E(2):
     alpha-alpha T2 =       0.2476281963D-01 E2=     -0.8623431346D-01
     alpha-beta  T2 =       0.1297314400D+00 E2=     -0.4856823667D+00
     beta-beta   T2 =       0.2476281963D-01 E2=     -0.8623431346D-01
 ANorm=    0.1085936038D+01
 E2 =    -0.6581509936D+00 EUMP2 =    -0.18892901312171D+03
          IDoAtm=1111
          Differentiating once with respect to electric field.
                with respect to dipole field.
          Differentiating once with respect to nuclear coordinates.
 Keep R1 ints in memory in symmetry-blocked form, NReq=128071153.
          There are     1 degrees of freedom in the 1st order CPHF.  IDoFFX=0 NUNeed=     1.
 LinEq1:  Iter=  0 NonCon=     1 RMS=6.48D-03 Max=1.03D-01 NDo=     1
 AX will form     1 AO Fock derivatives at one time.
 LinEq1:  Iter=  1 NonCon=     1 RMS=1.57D-03 Max=1.67D-02 NDo=     1
 LinEq1:  Iter=  2 NonCon=     1 RMS=5.58D-04 Max=6.66D-03 NDo=     1
 LinEq1:  Iter=  3 NonCon=     1 RMS=2.01D-04 Max=2.04D-03 NDo=     1
 LinEq1:  Iter=  4 NonCon=     1 RMS=5.94D-05 Max=7.68D-04 NDo=     1
 LinEq1:  Iter=  5 NonCon=     1 RMS=1.14D-05 Max=1.16D-04 NDo=     1
 LinEq1:  Iter=  6 NonCon=     1 RMS=2.51D-06 Max=2.87D-05 NDo=     1
 LinEq1:  Iter=  7 NonCon=     1 RMS=8.07D-07 Max=1.29D-05 NDo=     1
 LinEq1:  Iter=  8 NonCon=     1 RMS=3.76D-07 Max=3.90D-06 NDo=     1
 LinEq1:  Iter=  9 NonCon=     1 RMS=8.69D-08 Max=9.43D-07 NDo=     1
 LinEq1:  Iter= 10 NonCon=     1 RMS=1.96D-08 Max=2.07D-07 NDo=     1
 LinEq1:  Iter= 11 NonCon=     1 RMS=3.74D-09 Max=3.91D-08 NDo=     1
 LinEq1:  Iter= 12 NonCon=     1 RMS=6.41D-10 Max=9.20D-09 NDo=     1
 LinEq1:  Iter= 13 NonCon=     1 RMS=7.85D-11 Max=1.37D-09 NDo=     1
 LinEq1:  Iter= 14 NonCon=     0 RMS=1.04D-11 Max=9.49D-11 NDo=     1
 Linear equations converged to 1.000D-10 1.000D-09 after    14 iterations.
 End of Minotr F.D. properties file   721 does not exist.
 End of Minotr F.D. properties file   722 does not exist.
 End of Minotr F.D. properties file   788 does not exist.
 Calling FoFJK, ICntrl=  10002127 FMM=F ISym2X=1 I1Cent= 0 IOpClX= 0 NMat=1 NMatS=1 NMatT=0.
 ***** Axes restored to original set *****
 -------------------------------------------------------------------
 Center     Atomic                   Forces (Hartrees/Bohr)
 Number     Number              X              Y              Z
 -------------------------------------------------------------------
      1        6          -0.013737534    0.000000000    0.002756915
      2        8           0.014493346    0.000000000    0.007751986
      3        8          -0.005525049    0.000000000    0.004968925
      4        1           0.004769237    0.000000000   -0.015477826
 -------------------------------------------------------------------
 Cartesian Forces:  Max     0.015477826 RMS     0.008082882
 -----------------------------------------------------------------------------------------------
                       Internal Coordinate Forces (Hartree/Bohr or radian)
  Cent   Atom   N1       Length/X         N2         Alpha/Y        N3         Beta/Z          J
 -----------------------------------------------------------------------------------------------
      1  C 
      2  O        1   0.007752(     1)
      3  O        1  -0.007431(     2)      2   0.000144(     4)
      4  H        1   0.000106(     3)      2   0.034589(     5)      3   0.000000(     6)     0
 -----------------------------------------------------------------------------------------------
 Internal  Forces:  Max     0.034589017 RMS     0.014785906

 GradGradGradGradGradGradGradGradGradGradGradGradGradGradGradGradGradGrad
 Berny optimization.
 Search for a local minimum.
 Step number   2 out of a maximum of   20
 All quantities printed in internal units (Hartrees-Bohrs-Radians)
 Update second derivatives using D2CorN and points    1    2
 DE= -3.52D-04 DEPred=-3.50D-04 R= 1.00D+00
 TightC=F SS=  1.41D+00  RLast= 4.04D-02 DXNew= 5.0454D-01 1.2126D-01
 Trust test= 1.00D+00 RLast= 4.04D-02 DXMaxT set to 3.00D-01
 The second derivative matrix:
                          R1        R2        A1        A2
           R1           1.42099
           R2           0.07238   0.26357
           A1           0.07385  -0.04038   0.45650
           A2           0.03193   0.00745   0.12166   0.30498
 ITU=  1  0
     Eigenvalues ---    0.24914   0.46121   1.430711000.00000
 RFO step:  Lambda=-9.32786992D-08 EMin= 2.49137925D-01
 Quartic linear search produced a step of  0.00912.
 Variable       Old X    -DE/DX   Delta X   Delta X   Delta X     New X
                                 (Linear)    (Quad)   (Total)
    R1        2.37660   0.00032  -0.00001   0.00020   0.00019   2.37679
    R2        2.13570   0.00011   0.00008   0.00032   0.00040   2.13611
    A1        2.31141   0.00014   0.00036  -0.00004   0.00032   2.31173
    A2        1.87623   0.03459   0.00000   0.00000   0.00000   1.87623
         Item               Value     Threshold  Converged?
 Maximum Force            0.000321     0.000450     YES
 RMS     Force            0.000212     0.000300     YES
 Maximum Displacement     0.000401     0.001800     YES
 RMS     Displacement     0.000274     0.001200     YES
 Predicted change in Energy=-7.456735D-08
 Optimization completed.
    -- Stationary point found.
                       ----------------------------
                       !   Optimized Parameters   !
                       ! (Angstroms and Degrees)  !
 ----------------------                            ----------------------
 !      Name          Value   Derivative information (Atomic Units)     !
 ------------------------------------------------------------------------
 !       R1          1.2576   -DE/DX =    0.0003                        !
 !       R2          1.1302   -DE/DX =    0.0001                        !
 !       A1        132.434    -DE/DX =    0.0001                        !
 !       A2        107.5      -DE/DX =    0.0346                        !
 ------------------------------------------------------------------------
 GradGradGradGradGradGradGradGradGradGradGradGradGradGradGradGradGradGrad

 ---------------------------------------------------------------------------------------------------
                            Z-MATRIX (ANGSTROMS AND DEGREES)
   CD    Cent   Atom    N1       Length/X        N2       Alpha/Y        N3        Beta/Z          J
 ---------------------------------------------------------------------------------------------------
      1      1  C 
      2      2  O        1   1.257643(     1)
      3      3  O        1   1.257643(     2)      2  132.434(     4)
      4      4  H        1   1.130166(     3)      2  107.500(     5)      3  180.000(     6)      0
 ---------------------------------------------------------------------------------------------------
                         Z-Matrix orientation:                         
 ---------------------------------------------------------------------
 Center     Atomic      Atomic             Coordinates (Angstroms)
 Number     Number       Type             X           Y           Z
 ---------------------------------------------------------------------
      1          6           0        0.000000    0.000000    0.000000
      2          8           0        0.000000    0.000000    1.257643
      3          8           0        0.928210    0.000000   -0.848583
      4          1           0       -1.077859    0.000000   -0.339847
 ---------------------------------------------------------------------
                    Distance matrix (angstroms):
                    1          2          3          4
     1  C    0.000000
     2  O    1.257643   0.000000
     3  O    1.257643   2.301687   0.000000
     4  H    1.130166   1.927111   2.069571   0.000000
 Stoichiometry    CHO2(1-)
 Framework group  CS[SG(CHO2)]
 Deg. of freedom     5
 Full point group                 CS      NOp   2
 Largest Abelian subgroup         CS      NOp   2
 Largest concise Abelian subgroup C1      NOp   1
                         Standard orientation:                         
 ---------------------------------------------------------------------
 Center     Atomic      Atomic             Coordinates (Angstroms)
 Number     Number       Type             X           Y           Z
 ---------------------------------------------------------------------
      1          6           0        0.000000    0.304022    0.000000
      2          8           0       -1.141692   -0.223429    0.000000
      3          8           0        1.159634   -0.182717    0.000000
      4          1           0       -0.143536    1.425036    0.000000
 ---------------------------------------------------------------------
 Rotational constants (GHZ):         113.8846815          11.9236542          10.7935739

 **********************************************************************

            Population analysis using the SCF Density.

 **********************************************************************

 Orbital symmetries:
       Occupied  (A') (A') (A') (A') (A') (A') (A') (A') (A") (A')
                 (A") (A')
       Virtual   (A') (A') (A") (A') (A') (A') (A') (A") (A") (A')
                 (A') (A') (A") (A') (A") (A') (A') (A') (A') (A")
                 (A") (A') (A') (A") (A') (A') (A') (A') (A') (A")
                 (A') (A') (A") (A') (A") (A") (A') (A') (A") (A')
                 (A') (A") (A') (A') (A") (A') (A") (A') (A') (A")
                 (A') (A") (A') (A') (A') (A") (A') (A") (A') (A")
                 (A') (A') (A') (A") (A') (A') (A') (A") (A') (A")
                 (A") (A") (A') (A") (A') (A') (A') (A') (A") (A')
                 (A') (A") (A") (A') (A') (A') (A') (A") (A") (A')
                 (A') (A') (A") (A") (A') (A') (A") (A') (A") (A')
                 (A') (A') (A") (A") (A') (A') (A") (A') (A') (A')
                 (A") (A') (A") (A') (A") (A") (A') (A') (A') (A')
                 (A') (A') (A") (A') (A") (A') (A') (A") (A") (A')
                 (A") (A') (A") (A') (A") (A') (A') (A") (A") (A')
                 (A') (A") (A') (A') (A') (A') (A') (A') (A')
 The electronic state is 1-A'.
 Alpha  occ. eigenvalues --  -20.29388 -20.28847 -11.12651  -1.15438  -1.06327
 Alpha  occ. eigenvalues --   -0.55439  -0.42887  -0.38849  -0.34107  -0.21325
 Alpha  occ. eigenvalues --   -0.18936  -0.18478
 Alpha virt. eigenvalues --    0.14454   0.21313   0.21425   0.21659   0.28117
 Alpha virt. eigenvalues --    0.31812   0.32668   0.33709   0.36664   0.37164
 Alpha virt. eigenvalues --    0.39085   0.41758   0.42282   0.45823   0.49187
 Alpha virt. eigenvalues --    0.49497   0.52058   0.54215   0.58282   0.58684
 Alpha virt. eigenvalues --    0.62404   0.69101   0.70509   0.72162   0.77876
 Alpha virt. eigenvalues --    0.82354   0.86074   0.91374   0.94091   0.95854
 Alpha virt. eigenvalues --    0.99720   1.02797   1.05184   1.05209   1.05687
 Alpha virt. eigenvalues --    1.09770   1.11590   1.12648   1.13145   1.16305
 Alpha virt. eigenvalues --    1.21187   1.21773   1.22764   1.26168   1.27206
 Alpha virt. eigenvalues --    1.27455   1.33049   1.37443   1.42141   1.43971
 Alpha virt. eigenvalues --    1.47107   1.55155   1.57668   1.64045   1.66050
 Alpha virt. eigenvalues --    1.70390   1.76910   1.77925   1.81121   1.86717
 Alpha virt. eigenvalues --    1.91919   1.99614   2.10217   2.13602   2.19024
 Alpha virt. eigenvalues --    2.24453   2.40547   2.40892   2.46195   2.51038
 Alpha virt. eigenvalues --    2.57738   2.61524   2.63438   2.64036   2.64451
 Alpha virt. eigenvalues --    2.69433   2.72181   2.72809   2.80717   2.82302
 Alpha virt. eigenvalues --    2.85353   2.87699   2.91402   2.91662   2.97657
 Alpha virt. eigenvalues --    3.10046   3.12034   3.15186   3.16178   3.22074
 Alpha virt. eigenvalues --    3.33829   3.43012   3.43149   3.55818   3.65466
 Alpha virt. eigenvalues --    3.79092   3.80706   3.81748   4.03139   4.09146
 Alpha virt. eigenvalues --    4.20400   4.25544   4.27634   4.29800   4.33811
 Alpha virt. eigenvalues --    4.45939   4.53581   4.55103   4.73142   4.79799
 Alpha virt. eigenvalues --    4.86857   5.13833   5.22698   5.24042   5.31645
 Alpha virt. eigenvalues --    5.41219   5.42404   5.52307   5.82334   6.09263
 Alpha virt. eigenvalues --    6.52472   6.57538   6.83850   6.85055   6.87602
 Alpha virt. eigenvalues --    6.87614   7.06186   7.09137   7.10879   7.20543
 Alpha virt. eigenvalues --    7.31771   7.32301   7.37575   7.43670   7.44306
 Alpha virt. eigenvalues --    7.47807   7.54064   7.54423   7.79071   7.79634
 Alpha virt. eigenvalues --    7.84948   7.86283   7.94956   8.01635   8.15333
 Alpha virt. eigenvalues --    8.21637  13.70928  15.30197  16.62057
          Condensed to atoms (all electrons):
               1          2          3          4
     1  C    4.882312   0.402085   0.425699   0.294581
     2  O    0.402085   8.446189  -0.107355  -0.054341
     3  O    0.425699  -0.107355   8.407114  -0.043273
     4  H    0.294581  -0.054341  -0.043273   0.429591
 Mulliken charges:
               1
     1  C   -0.004678
     2  O   -0.686578
     3  O   -0.682186
     4  H    0.373442
 Sum of Mulliken charges =  -1.00000
 Mulliken charges with hydrogens summed into heavy atoms:
               1
     1  C    0.368764
     2  O   -0.686578
     3  O   -0.682186
 Electronic spatial extent (au):  <R**2>=            138.6354
 Charge=             -1.0000 electrons
 Dipole moment (field-independent basis, Debye):
    X=             -0.0545    Y=              1.7433    Z=              0.0000  Tot=              1.7441
 Quadrupole moment (field-independent basis, Debye-Ang):
   XX=            -29.7709   YY=            -20.3008   ZZ=            -18.9205
   XY=             -0.3404   XZ=              0.0000   YZ=              0.0000
 Traceless Quadrupole moment (field-independent basis, Debye-Ang):
   XX=             -6.7735   YY=              2.6966   ZZ=              4.0769
   XY=             -0.3404   XZ=              0.0000   YZ=              0.0000
 Octapole moment (field-independent basis, Debye-Ang**2):
  XXX=             -0.0719  YYY=             -1.1624  ZZZ=              0.0000  XYY=             -0.0483
  XXY=              1.0523  XXZ=              0.0000  XZZ=              0.0468  YZZ=             -0.2563
  YYZ=              0.0000  XYZ=              0.0000
 Hexadecapole moment (field-independent basis, Debye-Ang**3):
 XXXX=           -140.0865 YYYY=            -42.8222 ZZZZ=            -19.8276 XXXY=             -0.7618
 XXXZ=              0.0000 YYYX=             -0.7970 YYYZ=              0.0000 ZZZX=              0.0000
 ZZZY=              0.0000 XXYY=            -28.5985 XXZZ=            -25.2199 YYZZ=            -10.2263
 XXYZ=              0.0000 YYXZ=              0.0000 ZZXY=             -0.1449
 N-N= 6.215965621495D+01 E-N=-5.763512698863D+02  KE= 1.879436927167D+02
 Symmetry A'   KE= 1.803199296687D+02
 Symmetry A"   KE= 7.623763048006D+00
 1|1|UNPC-DESKTOP-F4NP0R6|POpt|RMP2-FC|Aug-CC-pVTZ|C1H1O2(1-)|GARRETT|2
 3-Jul-2018|1||# MP2 Aug-cc-pvTZ opt=(noeigen,calcfc,z-matrix)||Formate
 ||-1,1|C|O,1,R1|O,1,R1,2,A1|H,1,R2,2,A2,3,180.,0||R1=1.25764329|R2=1.1
 3016604|A1=132.43400782|A2=107.5||Version=EM64W-G16RevB.01|State=1-A'|
 HF=-188.2708621|MP2=-188.9290131|RMSD=9.942e-009|RMSF=8.083e-003|Dipol
 e=-0.4952408,0.,-0.2137329|PG=CS [SG(C1H1O2)]||@


 The lyf so short, the craft so long to lerne.
                             -- Chaucer
 Job cpu time:       0 days  0 hours 26 minutes 57.0 seconds.
 Elapsed time:       0 days  0 hours 26 minutes 33.9 seconds.
 File lengths (MBytes):  RWF=   2790 Int=      0 D2E=      0 Chk=      4 Scr=      1
 Normal termination of Gaussian 16 at Mon Jul 23 16:36:11 2018.
