 Entering Link 1 = C:\G16W\l1.exe PID=       900.
  
 Copyright (c) 1988-2017, Gaussian, Inc.  All Rights Reserved.
  
 This is part of the Gaussian(R) 16 program.  It is based on
 the Gaussian(R) 09 system (copyright 2009, Gaussian, Inc.),
 the Gaussian(R) 03 system (copyright 2003, Gaussian, Inc.),
 the Gaussian(R) 98 system (copyright 1998, Gaussian, Inc.),
 the Gaussian(R) 94 system (copyright 1995, Gaussian, Inc.),
 the Gaussian 92(TM) system (copyright 1992, Gaussian, Inc.),
 the Gaussian 90(TM) system (copyright 1990, Gaussian, Inc.),
 the Gaussian 88(TM) system (copyright 1988, Gaussian, Inc.),
 the Gaussian 86(TM) system (copyright 1986, Carnegie Mellon
 University), and the Gaussian 82(TM) system (copyright 1983,
 Carnegie Mellon University). Gaussian is a federally registered
 trademark of Gaussian, Inc.
  
 This software contains proprietary and confidential information,
 including trade secrets, belonging to Gaussian, Inc.
  
 This software is provided under written license and may be
 used, copied, transmitted, or stored only in accord with that
 written license.
  
 The following legend is applicable only to US Government
 contracts under FAR:
  
                    RESTRICTED RIGHTS LEGEND
  
 Use, reproduction and disclosure by the US Government is
 subject to restrictions as set forth in subparagraphs (a)
 and (c) of the Commercial Computer Software - Restricted
 Rights clause in FAR 52.227-19.
  
 Gaussian, Inc.
 340 Quinnipiac St., Bldg. 40, Wallingford CT 06492
  
  
 ---------------------------------------------------------------
 Warning -- This program may not be used in any manner that
 competes with the business of Gaussian, Inc. or will provide
 assistance to any competitor of Gaussian, Inc.  The licensee
 of this program is prohibited from giving any competitor of
 Gaussian, Inc. access to this program.  By using this program,
 the user acknowledges that Gaussian, Inc. is engaged in the
 business of creating and licensing software in the field of
 computational chemistry and represents and warrants to the
 licensee that it is not a competitor of Gaussian, Inc. and that
 it will not use this program in any manner prohibited above.
 ---------------------------------------------------------------
  

 Cite this work as:
 Gaussian 16, Revision B.01,
 M. J. Frisch, G. W. Trucks, H. B. Schlegel, G. E. Scuseria, 
 M. A. Robb, J. R. Cheeseman, G. Scalmani, V. Barone, 
 G. A. Petersson, H. Nakatsuji, X. Li, M. Caricato, A. V. Marenich, 
 J. Bloino, B. G. Janesko, R. Gomperts, B. Mennucci, H. P. Hratchian, 
 J. V. Ortiz, A. F. Izmaylov, J. L. Sonnenberg, D. Williams-Young, 
 F. Ding, F. Lipparini, F. Egidi, J. Goings, B. Peng, A. Petrone, 
 T. Henderson, D. Ranasinghe, V. G. Zakrzewski, J. Gao, N. Rega, 
 G. Zheng, W. Liang, M. Hada, M. Ehara, K. Toyota, R. Fukuda, 
 J. Hasegawa, M. Ishida, T. Nakajima, Y. Honda, O. Kitao, H. Nakai, 
 T. Vreven, K. Throssell, J. A. Montgomery, Jr., J. E. Peralta, 
 F. Ogliaro, M. J. Bearpark, J. J. Heyd, E. N. Brothers, K. N. Kudin, 
 V. N. Staroverov, T. A. Keith, R. Kobayashi, J. Normand, 
 K. Raghavachari, A. P. Rendell, J. C. Burant, S. S. Iyengar, 
 J. Tomasi, M. Cossi, J. M. Millam, M. Klene, C. Adamo, R. Cammi, 
 J. W. Ochterski, R. L. Martin, K. Morokuma, O. Farkas, 
 J. B. Foresman, and D. J. Fox, Gaussian, Inc., Wallingford CT, 2016.
 
 ******************************************
 Gaussian 16:  EM64W-G16RevB.01 16-Dec-2017
                23-Jul-2018 
 ******************************************
 %nproc=2
 Will use up to    2 processors via shared memory.
 %mem=4gb
 -----------------------------------------------
 # MP2 Aug-cc-pvTZ opt=(noeigen,calcfc,z-matrix)
 -----------------------------------------------
 1/10=4,11=1,18=40,38=1/1,3;
 2/12=2,17=6,18=5,29=3,40=1/2;
 3/5=16,6=1,7=10,11=9,25=1,30=1,71=2,140=1/1,2,3;
 4//1;
 5/5=2,38=5/2;
 8/6=3,8=1,10=1,19=11,30=-1/1;
 9/15=3,16=-3/6;
 11/6=1,8=1,15=11,17=12,24=-1,27=1,28=-2,29=300,32=6,42=3/1,2,10;
 10/6=2,21=1/2;
 8/6=4,8=1,10=1,19=11,30=-1/11,4;
 10/5=1,20=4/2;
 11/12=2,14=11,16=1,17=2,28=-2,42=3,76=2/2,10,12;
 6/7=2,8=2,9=2,10=2/1;
 7/10=1,12=2,25=1,44=2/1,2,3,16;
 1/10=4,11=1,18=40/3(2);
 2/29=3/2;
 99//99;
 2/29=3/2;
 3/5=16,6=1,7=10,11=9,25=1,30=1,71=1/1,2,3;
 4/5=5,16=3,69=1/1;
 5/5=2,38=5/2;
 8/6=4,10=1/1;
 9/15=2,16=-3/6;
 10/5=1/2;
 7/12=2/1,2,3,16;
 1/11=1,18=40/3(-8);
 2/29=3/2;
 6/7=2,8=2,9=2,10=2/1;
 99/9=10/99;
 -------
 Formate
 -------
 Symbolic Z-matrix:
 Charge = -1 Multiplicity = 1
 C
 O                    1    R1
 O                    1    R1       2    A1
 H                    1    R2       2    A2       3     180.     0
       Variables:
  R1                    1.25827                  
  A1                  130.18115                  
  A2                  114.9094                   
       Constants:
  R2                    1.2                      
 

 GradGradGradGradGradGradGradGradGradGradGradGradGradGradGradGradGradGrad
 Berny optimization.
 Initialization pass.
                       ----------------------------
                       !    Initial Parameters    !
                       ! (Angstroms and Degrees)  !
 ----------------------                            ----------------------
 !      Name          Value   Derivative information (Atomic Units)     !
 ------------------------------------------------------------------------
 !       R1          1.2583   calculate D2E/DX2 analytically            !
 !       A1        130.1811   calculate D2E/DX2 analytically            !
 !       A2        114.9094   calculate D2E/DX2 analytically            !
 !       R2          1.2      frozen, calculate D2E/DX2 analytically    !
 ------------------------------------------------------------------------
 Trust Radius=3.00D-01 FncErr=1.00D-07 GrdErr=1.00D-07 EigMax=2.50D+02 EigMin=1.00D-04
 Number of steps in this run=     20 maximum allowed number of steps=    100.
 GradGradGradGradGradGradGradGradGradGradGradGradGradGradGradGradGradGrad

 ---------------------------------------------------------------------------------------------------
                            Z-MATRIX (ANGSTROMS AND DEGREES)
   CD    Cent   Atom    N1       Length/X        N2       Alpha/Y        N3        Beta/Z          J
 ---------------------------------------------------------------------------------------------------
      1      1  C 
      2      2  O        1   1.258269(     1)
      3      3  O        1   1.258269(     2)      2  130.181(     4)
      4      4  H        1   1.200000(     3)      2  114.909(     5)      3  180.000(     6)      0
 ---------------------------------------------------------------------------------------------------
                         Z-Matrix orientation:                         
 ---------------------------------------------------------------------
 Center     Atomic      Atomic             Coordinates (Angstroms)
 Number     Number       Type             X           Y           Z
 ---------------------------------------------------------------------
      1          6           0        0.000000    0.000000    0.000000
      2          8           0        0.000000    0.000000    1.258269
      3          8           0        0.961328    0.000000   -0.811843
      4          1           0       -1.088370    0.000000   -0.505421
 ---------------------------------------------------------------------
                    Distance matrix (angstroms):
                    1          2          3          4
     1  C    0.000000
     2  O    1.258269   0.000000
     3  O    1.258269   2.282437   0.000000
     4  H    1.200000   2.072476   2.072476   0.000000
 Stoichiometry    CHO2(1-)
 Framework group  CS[SG(CHO2)]
 Deg. of freedom     5
 Full point group                 CS      NOp   2
 Largest Abelian subgroup         CS      NOp   2
 Largest concise Abelian subgroup C1      NOp   1
                         Standard orientation:                         
 ---------------------------------------------------------------------
 Center     Atomic      Atomic             Coordinates (Angstroms)
 Number     Number       Type             X           Y           Z
 ---------------------------------------------------------------------
      1          6           0        0.000000    0.316497    0.000000
      2          8           0       -1.141219   -0.213467    0.000000
      3          8           0        1.141219   -0.213467    0.000000
      4          1           0       -0.000001    1.516497    0.000000
 ---------------------------------------------------------------------
 Rotational constants (GHZ):         102.5659166          12.1301890          10.8473077
 Standard basis: Aug-CC-pVTZ (5D, 7F)
 There are   129 symmetry adapted cartesian basis functions of A'  symmetry.
 There are    61 symmetry adapted cartesian basis functions of A"  symmetry.
 There are   106 symmetry adapted basis functions of A'  symmetry.
 There are    55 symmetry adapted basis functions of A"  symmetry.
   161 basis functions,   243 primitive gaussians,   190 cartesian basis functions
    12 alpha electrons       12 beta electrons
       nuclear repulsion energy        61.9432073946 Hartrees.
 NAtoms=    4 NActive=    4 NUniq=    4 SFac= 1.00D+00 NAtFMM=   60 NAOKFM=F Big=F
 Integral buffers will be    131072 words long.
 Raffenetti 1 integral format.
 Two-electron integral symmetry is turned on.
 One-electron integrals computed using PRISM.
 NBasis=   161 RedAO= T EigKep=  1.25D-04  NBF=   106    55
 NBsUse=   161 1.00D-06 EigRej= -1.00D+00 NBFU=   106    55
 ExpMin= 2.53D-02 ExpMax= 1.53D+04 ExpMxC= 5.22D+02 IAcc=3 IRadAn=         5 AccDes= 0.00D+00
 Harris functional with IExCor=  205 and IRadAn=       5 diagonalized for initial guess.
 HarFok:  IExCor=  205 AccDes= 0.00D+00 IRadAn=         5 IDoV= 1 UseB2=F ITyADJ=14
 ICtDFT=  3500011 ScaDFX=  1.000000  1.000000  1.000000  1.000000
 FoFCou: FMM=F IPFlag=           0 FMFlag=      100000 FMFlg1=           0
         NFxFlg=           0 DoJE=T BraDBF=F KetDBF=T FulRan=T
         wScrn=  0.000000 ICntrl=       500 IOpCl=  0 I1Cent=   200000004 NGrid=           0
         NMat0=    1 NMatS0=      1 NMatT0=    0 NMatD0=    1 NMtDS0=    0 NMtDT0=    0
 Petite list used in FoFCou.
 Initial guess orbital symmetries:
       Occupied  (A') (A') (A') (A') (A') (A') (A') (A') (A") (A")
                 (A') (A')
       Virtual   (A") (A') (A') (A') (A") (A') (A') (A') (A') (A")
                 (A") (A') (A') (A') (A") (A') (A') (A') (A") (A')
                 (A') (A") (A') (A') (A") (A') (A') (A') (A') (A")
                 (A') (A') (A") (A") (A') (A") (A") (A') (A') (A')
                 (A') (A') (A") (A") (A') (A") (A') (A') (A") (A')
                 (A') (A') (A") (A') (A') (A") (A") (A') (A') (A")
                 (A') (A') (A') (A") (A') (A') (A') (A") (A') (A")
                 (A") (A") (A') (A") (A') (A') (A') (A') (A") (A')
                 (A') (A') (A") (A") (A') (A') (A') (A") (A") (A')
                 (A') (A') (A") (A") (A') (A') (A') (A") (A") (A')
                 (A") (A') (A') (A") (A') (A') (A') (A") (A') (A')
                 (A") (A') (A") (A') (A") (A') (A") (A') (A') (A')
                 (A') (A') (A") (A') (A') (A") (A') (A") (A") (A')
                 (A') (A") (A") (A') (A') (A") (A") (A') (A") (A')
                 (A") (A') (A') (A') (A') (A') (A') (A') (A')
 The electronic state of the initial guess is 1-A'.
 Keep R1 ints in memory in symmetry-blocked form, NReq=128070129.
 Requested convergence on RMS density matrix=1.00D-08 within 128 cycles.
 Requested convergence on MAX density matrix=1.00D-06.
 Requested convergence on             energy=1.00D-06.
 No special actions if energy rises.
 SCF Done:  E(RHF) =  -188.269972384     A.U. after   11 cycles
            NFock= 11  Conv=0.73D-08     -V/T= 2.0023
 ExpMin= 2.53D-02 ExpMax= 1.53D+04 ExpMxC= 5.22D+02 IAcc=3 IRadAn=         5 AccDes= 0.00D+00
 HarFok:  IExCor=  205 AccDes= 0.00D+00 IRadAn=         5 IDoV=-2 UseB2=F ITyADJ=14
 ICtDFT= 12500011 ScaDFX=  1.000000  1.000000  1.000000  1.000000
 Range of M.O.s used for correlation:     4   161
 NBasis=   161 NAE=    12 NBE=    12 NFC=     3 NFV=     0
 NROrb=    158 NOA=     9 NOB=     9 NVA=   149 NVB=   149

 **** Warning!!: The largest alpha MO coefficient is  0.26010089D+02

 Disk-based method using ON**2 memory for  9 occupieds at a time.
 Permanent disk used for amplitudes=     3924660 words.
 Estimated scratch disk usage=   113146432 words.
 Actual    scratch disk usage=   109232192 words.
 JobTyp=1 Pass  1:  I=   4 to  12 NPSUse=  2 ParTrn=T ParDer=T DoDerP=T.
 (rs|ai) integrals will be sorted in core.
 Spin components of T(2) and E(2):
     alpha-alpha T2 =       0.2490499455D-01 E2=     -0.8631726297D-01
     alpha-beta  T2 =       0.1310094160D+00 E2=     -0.4864022735D+00
     beta-beta   T2 =       0.2490499455D-01 E2=     -0.8631726297D-01
 ANorm=    0.1086655145D+01
 E2 =    -0.6590367994D+00 EUMP2 =    -0.18892900918385D+03
 G2DrvN: will do     5 centers at a time, making    1 passes.
 Calling FoFCou, ICntrl=  3107 FMM=F I1Cent=   0 AccDes= 0.00D+00.
 End of G2Drv F.D. properties file   721 does not exist.
 End of G2Drv F.D. properties file   722 does not exist.
 End of G2Drv F.D. properties file   788 does not exist.
          IDoAtm=1111
          Differentiating once with respect to electric field.
                with respect to dipole field.
          Differentiating once with respect to nuclear coordinates.
 Keep R1 ints in memory in symmetry-blocked form, NReq=128071153.
          There are    15 degrees of freedom in the 1st order CPHF.  IDoFFX=6 NUNeed=    15.
     12 vectors produced by pass  0 Test12= 1.19D-14 6.67D-09 XBig12= 9.06D+00 1.35D+00.
 AX will form    12 AO Fock derivatives at one time.
     12 vectors produced by pass  1 Test12= 1.19D-14 6.67D-09 XBig12= 1.14D+00 2.72D-01.
     12 vectors produced by pass  2 Test12= 1.19D-14 6.67D-09 XBig12= 3.16D-02 3.60D-02.
     12 vectors produced by pass  3 Test12= 1.19D-14 6.67D-09 XBig12= 8.66D-04 6.58D-03.
     12 vectors produced by pass  4 Test12= 1.19D-14 6.67D-09 XBig12= 1.53D-05 8.52D-04.
     12 vectors produced by pass  5 Test12= 1.19D-14 6.67D-09 XBig12= 2.43D-07 1.52D-04.
     12 vectors produced by pass  6 Test12= 1.19D-14 6.67D-09 XBig12= 2.36D-09 1.61D-05.
      7 vectors produced by pass  7 Test12= 1.19D-14 6.67D-09 XBig12= 2.35D-11 1.22D-06.
      4 vectors produced by pass  8 Test12= 1.19D-14 6.67D-09 XBig12= 2.11D-13 1.06D-07.
      1 vectors produced by pass  9 Test12= 1.19D-14 6.67D-09 XBig12= 2.03D-15 1.37D-08.
 InvSVY:  IOpt=1 It=  1 EMax= 8.88D-16
 Solved reduced A of dimension    96 with    12 vectors.
 End of Minotr F.D. properties file   721 does not exist.
 End of Minotr F.D. properties file   722 does not exist.
 End of Minotr F.D. properties file   788 does not exist.
 MDV=   536870912.
 Form MO integral derivatives with frozen-active canonical formalism.
 Discarding MO integrals.
 Reordered first order wavefunction length =      6393888
 In DefCFB: NBatch=  1 ICI= 12 ICA=149 LFMax= 50
            Large arrays: LIAPS=   218779680 LIARS=   130792200 words.
 Semi-Direct transformation.
 ModeAB=           2 MOrb=            12 LenV=     536063161
 LASXX=     23759367 LTotXX=    23759367 LenRXX=    23759367
 LTotAB=    24195042 MaxLAS=    35056140 LenRXY=    35056140
 NonZer=    47518734 LenScr=    72043008 LnRSAI=           0
 LnScr1=           0 LExtra=           0 Total=    130858515
 MaxDsk=          -1 SrtSym=           F ITran=            4
 JobTyp=0 Pass  1:  I=   1 to  12.
 (rs|ai) integrals will be sorted in core.
 Spin components of T(2) and E(2):
     alpha-alpha T2 =       0.2490499455D-01 E2=     -0.8631726297D-01
     alpha-beta  T2 =       0.1310094160D+00 E2=     -0.4864022735D+00
     beta-beta   T2 =       0.2490499455D-01 E2=     -0.8631726297D-01
 ANorm=    0.1536762444D+01
 E2 =    -0.6590367994D+00 EUMP2 =    -0.18892900918385D+03
          IDoAtm=1111
          Differentiating once with respect to electric field.
                with respect to dipole field.
          Differentiating once with respect to nuclear coordinates.
          There are     1 degrees of freedom in the 1st order CPHF.  IDoFFX=0 NUNeed=     1.
 LinEq1:  Iter=  0 NonCon=     1 RMS=6.51D-03 Max=1.02D-01 NDo=     1
 LinEq1:  Iter=  1 NonCon=     1 RMS=1.62D-03 Max=1.81D-02 NDo=     1
 LinEq1:  Iter=  2 NonCon=     1 RMS=5.68D-04 Max=6.79D-03 NDo=     1
 LinEq1:  Iter=  3 NonCon=     1 RMS=2.08D-04 Max=2.18D-03 NDo=     1
 LinEq1:  Iter=  4 NonCon=     1 RMS=6.20D-05 Max=7.98D-04 NDo=     1
 LinEq1:  Iter=  5 NonCon=     1 RMS=1.23D-05 Max=1.27D-04 NDo=     1
 LinEq1:  Iter=  6 NonCon=     1 RMS=2.64D-06 Max=3.06D-05 NDo=     1
 LinEq1:  Iter=  7 NonCon=     1 RMS=4.98D-07 Max=5.06D-06 NDo=     1
 LinEq1:  Iter=  8 NonCon=     1 RMS=7.67D-08 Max=7.15D-07 NDo=     1
 LinEq1:  Iter=  9 NonCon=     1 RMS=1.28D-08 Max=1.64D-07 NDo=     1
 LinEq1:  Iter= 10 NonCon=     1 RMS=1.72D-09 Max=2.78D-08 NDo=     1
 LinEq1:  Iter= 11 NonCon=     1 RMS=2.12D-10 Max=3.00D-09 NDo=     1
 LinEq1:  Iter= 12 NonCon=     0 RMS=2.60D-11 Max=2.85D-10 NDo=     1
 Linear equations converged to 1.000D-10 1.000D-09 after    12 iterations.
 End of Minotr F.D. properties file   721 does not exist.
 End of Minotr F.D. properties file   722 does not exist.
 End of Minotr F.D. properties file   788 does not exist.
 Symmetrizing basis deriv contribution to polar:
 IMax=3 JMax=2 DiffMx= 0.00D+00
 G2DrvN: will do     5 centers at a time, making    1 passes.
 Calling FoFCou, ICntrl=  3107 FMM=F I1Cent=   0 AccDes= 0.00D+00.
 End of G2Drv F.D. properties file   721 does not exist.
 End of G2Drv F.D. properties file   722 does not exist.
 End of G2Drv F.D. properties file   788 does not exist.
 R2 and R3 integrals will be kept in memory, NReq=   332743010.
 DD1Dir will call FoFMem   1 times, MxPair=       156
 NAB=    78 NAA=     0 NBB=     0.
 Discarding MO integrals.

 **********************************************************************

            Population analysis using the SCF Density.

 **********************************************************************

 Orbital symmetries:
       Occupied  (A') (A') (A') (A') (A') (A') (A') (A') (A") (A')
                 (A") (A')
       Virtual   (A') (A') (A") (A') (A') (A') (A') (A") (A") (A')
                 (A') (A') (A") (A') (A") (A') (A') (A') (A') (A")
                 (A") (A') (A') (A") (A') (A') (A') (A') (A') (A")
                 (A') (A') (A") (A') (A") (A") (A') (A') (A") (A')
                 (A") (A') (A') (A") (A') (A') (A") (A') (A") (A')
                 (A') (A") (A') (A') (A') (A") (A") (A') (A') (A")
                 (A') (A') (A') (A") (A') (A') (A") (A') (A') (A")
                 (A") (A") (A") (A') (A') (A') (A') (A') (A') (A")
                 (A') (A") (A') (A") (A') (A') (A') (A") (A") (A')
                 (A') (A') (A") (A") (A') (A') (A") (A') (A") (A')
                 (A') (A") (A') (A") (A') (A') (A") (A') (A') (A')
                 (A") (A") (A') (A') (A") (A') (A') (A") (A') (A')
                 (A') (A') (A") (A') (A') (A") (A') (A") (A") (A')
                 (A') (A") (A") (A") (A') (A') (A') (A") (A') (A")
                 (A") (A') (A') (A') (A') (A') (A') (A') (A')
 The electronic state is 1-A'.
 Alpha  occ. eigenvalues --  -20.29327 -20.29324 -11.13642  -1.15645  -1.06237
 Alpha  occ. eigenvalues --   -0.54201  -0.42661  -0.38917  -0.34282  -0.21154
 Alpha  occ. eigenvalues --   -0.19015  -0.18753
 Alpha virt. eigenvalues --    0.14457   0.21291   0.21438   0.21673   0.28150
 Alpha virt. eigenvalues --    0.31770   0.32787   0.33810   0.36461   0.37175
 Alpha virt. eigenvalues --    0.39220   0.41265   0.42091   0.45589   0.49004
 Alpha virt. eigenvalues --    0.49715   0.51558   0.54673   0.57448   0.59050
 Alpha virt. eigenvalues --    0.61895   0.69550   0.69642   0.71743   0.77006
 Alpha virt. eigenvalues --    0.82293   0.86266   0.91997   0.92026   0.96212
 Alpha virt. eigenvalues --    0.99154   1.00971   1.05003   1.05872   1.06412
 Alpha virt. eigenvalues --    1.10714   1.12261   1.12498   1.13110   1.15705
 Alpha virt. eigenvalues --    1.20863   1.20905   1.21366   1.25173   1.25872
 Alpha virt. eigenvalues --    1.27705   1.32020   1.38606   1.42360   1.43049
 Alpha virt. eigenvalues --    1.44202   1.55694   1.56895   1.62333   1.65570
 Alpha virt. eigenvalues --    1.70271   1.76092   1.79193   1.79955   1.86986
 Alpha virt. eigenvalues --    1.92835   1.99003   2.04907   2.10782   2.13888
 Alpha virt. eigenvalues --    2.23924   2.41001   2.41384   2.44662   2.49999
 Alpha virt. eigenvalues --    2.57199   2.61189   2.63423   2.64070   2.64525
 Alpha virt. eigenvalues --    2.70290   2.72373   2.73347   2.80965   2.81224
 Alpha virt. eigenvalues --    2.85811   2.87990   2.88319   2.90373   2.97688
 Alpha virt. eigenvalues --    3.08843   3.12248   3.14627   3.14701   3.27217
 Alpha virt. eigenvalues --    3.30609   3.40616   3.42774   3.55555   3.66208
 Alpha virt. eigenvalues --    3.78801   3.81474   3.81553   4.02593   4.06472
 Alpha virt. eigenvalues --    4.12674   4.26703   4.27175   4.28977   4.29036
 Alpha virt. eigenvalues --    4.46957   4.48208   4.49497   4.73074   4.77431
 Alpha virt. eigenvalues --    4.81019   5.12411   5.14466   5.14723   5.26186
 Alpha virt. eigenvalues --    5.31039   5.35363   5.36900   5.65187   6.05771
 Alpha virt. eigenvalues --    6.53088   6.54799   6.84259   6.85338   6.86538
 Alpha virt. eigenvalues --    6.87146   7.06874   7.08873   7.10223   7.17904
 Alpha virt. eigenvalues --    7.27293   7.29450   7.37384   7.42690   7.43038
 Alpha virt. eigenvalues --    7.47747   7.53314   7.54421   7.74218   7.78758
 Alpha virt. eigenvalues --    7.84758   7.85707   7.93672   8.00594   8.16226
 Alpha virt. eigenvalues --    8.17086  13.58501  14.91748  16.19777
          Condensed to atoms (all electrons):
               1          2          3          4
     1  C    4.747053   0.422336   0.422336   0.331543
     2  O    0.422336   8.404741  -0.111816  -0.044100
     3  O    0.422336  -0.111816   8.404741  -0.044100
     4  H    0.331543  -0.044100  -0.044100   0.491065
 Mulliken charges:
               1
     1  C    0.076731
     2  O   -0.671161
     3  O   -0.671161
     4  H    0.265592
 Sum of Mulliken charges =  -1.00000
 Mulliken charges with hydrogens summed into heavy atoms:
               1
     1  C    0.342323
     2  O   -0.671161
     3  O   -0.671161
 APT charges:
               1
     1  C    1.313440
     2  O   -1.029722
     3  O   -1.029722
     4  H   -0.253996
 Sum of APT charges =  -1.00000
 APT charges with hydrogens summed into heavy atoms:
               1
     1  C    1.059443
     2  O   -1.029722
     3  O   -1.029722
 Electronic spatial extent (au):  <R**2>=            138.8147
 Charge=             -1.0000 electrons
 Dipole moment (field-independent basis, Debye):
    X=              0.0000    Y=              1.6633    Z=              0.0000  Tot=              1.6633
 Quadrupole moment (field-independent basis, Debye-Ang):
   XX=            -29.6372   YY=            -20.5503   ZZ=            -18.9984
   XY=              0.0000   XZ=              0.0000   YZ=              0.0000
 Traceless Quadrupole moment (field-independent basis, Debye-Ang):
   XX=             -6.5753   YY=              2.5117   ZZ=              4.0636
   XY=              0.0000   XZ=              0.0000   YZ=              0.0000
 Octapole moment (field-independent basis, Debye-Ang**2):
  XXX=              0.0000  YYY=             -2.1621  ZZZ=              0.0000  XYY=              0.0000
  XXY=              0.7804  XXZ=              0.0000  XZZ=              0.0000  YZZ=             -0.4901
  YYZ=              0.0000  XYZ=              0.0000
 Hexadecapole moment (field-independent basis, Debye-Ang**3):
 XXXX=           -137.8903 YYYY=            -46.8962 ZZZZ=            -19.9388 XXXY=              0.0000
 XXXZ=              0.0000 YYYX=              0.0000 YYYZ=              0.0000 ZZZX=              0.0000
 ZZZY=              0.0000 XXYY=            -28.7809 XXZZ=            -24.9085 YYZZ=            -10.8956
 XXYZ=              0.0000 YYXZ=              0.0000 ZZXY=              0.0000
 N-N= 6.194320739459D+01 E-N=-5.758065848917D+02  KE= 1.878434050073D+02
 Symmetry A'   KE= 1.802001061358D+02
 Symmetry A"   KE= 7.643298871492D+00
  Exact polarizability:  41.409   0.000  38.494   0.000   0.000  23.775
 Approx polarizability:  27.373   0.000  24.552   0.000   0.000  18.779
 Calling FoFJK, ICntrl=  10100127 FMM=F ISym2X=1 I1Cent= 0 IOpClX= 0 NMat=1 NMatS=1 NMatT=0.
 ***** Axes restored to original set *****
 -------------------------------------------------------------------
 Center     Atomic                   Forces (Hartrees/Bohr)
 Number     Number              X              Y              Z
 -------------------------------------------------------------------
      1        6          -0.018305062    0.000000000   -0.008500519
      2        8          -0.002582993    0.000000000   -0.005179203
      3        8          -0.005623608    0.000000000    0.001368213
      4        1           0.026511663    0.000000000    0.012311510
 -------------------------------------------------------------------
 Cartesian Forces:  Max     0.026511663 RMS     0.010522866
 -----------------------------------------------------------------------------------------------
                       Internal Coordinate Forces (Hartree/Bohr or radian)
  Cent   Atom   N1       Length/X         N2         Alpha/Y        N3         Beta/Z          J
 -----------------------------------------------------------------------------------------------
      1  C 
      2  O        1  -0.005179(     1)
      3  O        1  -0.005179(     2)      2   0.006142(     4)
      4  H        1  -0.029231(     3)      2   0.000000(     5)      3   0.000000(     6)     0
 -----------------------------------------------------------------------------------------------
 Internal  Forces:  Max     0.029230832 RMS     0.012555305

 GradGradGradGradGradGradGradGradGradGradGradGradGradGradGradGradGradGrad
 Berny optimization.
 Search for a local minimum.
 Step number   1 out of a maximum of   20
 All quantities printed in internal units (Hartrees-Bohrs-Radians)
 Second derivative matrix not updated -- analytic derivatives used.
 The second derivative matrix:
                          R1        A1        A2        R2
           R1           1.39935
           A1           0.07904   0.48035
           A2           0.00000   0.14886   0.29771
           R2           0.07394  -0.04471   0.00000   0.16190
 ITU=  0
     Eigenvalues ---    0.21313   0.55804   1.406241000.00000
 RFO step:  Lambda=-1.89316909D-04 EMin= 2.13125103D-01
 Linear search not attempted -- first point.
 Variable       Old X    -DE/DX   Delta X   Delta X   Delta X     New X
                                 (Linear)    (Quad)   (Total)
    R1        2.37778  -0.01036   0.00000  -0.00835  -0.00835   2.36944
    A1        2.27209   0.00614   0.00000   0.01675   0.01675   2.28884
    A2        2.00555   0.00000   0.00000  -0.00837  -0.00837   1.99718
    R2        2.26767  -0.02923   0.00000   0.00000   0.00000   2.26767
         Item               Value     Threshold  Converged?
 Maximum Force            0.010358     0.000450     NO 
 RMS     Force            0.006953     0.000300     NO 
 Maximum Displacement     0.016746     0.001800     NO 
 RMS     Displacement     0.010248     0.001200     NO 
 Predicted change in Energy=-9.469824D-05
 GradGradGradGradGradGradGradGradGradGradGradGradGradGradGradGradGradGrad

 ---------------------------------------------------------------------------------------------------
                            Z-MATRIX (ANGSTROMS AND DEGREES)
   CD    Cent   Atom    N1       Length/X        N2       Alpha/Y        N3        Beta/Z          J
 ---------------------------------------------------------------------------------------------------
      1      1  C 
      2      2  O        1   1.253852(     1)
      3      3  O        1   1.253852(     2)      2  131.141(     4)
      4      4  H        1   1.200000(     3)      2  114.430(     5)      3  180.000(     6)      0
 ---------------------------------------------------------------------------------------------------
                         Z-Matrix orientation:                         
 ---------------------------------------------------------------------
 Center     Atomic      Atomic             Coordinates (Angstroms)
 Number     Number       Type             X           Y           Z
 ---------------------------------------------------------------------
      1          6           0        0.000000    0.000000    0.000000
      2          8           0        0.000000    0.000000    1.253852
      3          8           0        0.944272    0.000000   -0.824922
      4          1           0       -1.092561    0.000000   -0.496297
 ---------------------------------------------------------------------
                    Distance matrix (angstroms):
                    1          2          3          4
     1  C    0.000000
     2  O    1.253852   0.000000
     3  O    1.253852   2.283189   0.000000
     4  H    1.200000   2.063180   2.063173   0.000000
 Stoichiometry    CHO2(1-)
 Framework group  CS[SG(CHO2)]
 Deg. of freedom     5
 Full point group                 CS      NOp   2
 Largest Abelian subgroup         CS      NOp   2
 Largest concise Abelian subgroup C1      NOp   1
                         Standard orientation:                         
 ---------------------------------------------------------------------
 Center     Atomic      Atomic             Coordinates (Angstroms)
 Number     Number       Type             X           Y           Z
 ---------------------------------------------------------------------
      1          6           0        0.000000    0.308566    0.000000
      2          8           0       -1.141595   -0.209997    0.000000
      3          8           0        1.141594   -0.209999    0.000000
      4          1           0        0.000007    1.508566    0.000000
 ---------------------------------------------------------------------
 Rotational constants (GHZ):         105.3485905          12.1222040          10.8712732
 Standard basis: Aug-CC-pVTZ (5D, 7F)
 There are   129 symmetry adapted cartesian basis functions of A'  symmetry.
 There are    61 symmetry adapted cartesian basis functions of A"  symmetry.
 There are   106 symmetry adapted basis functions of A'  symmetry.
 There are    55 symmetry adapted basis functions of A"  symmetry.
   161 basis functions,   243 primitive gaussians,   190 cartesian basis functions
    12 alpha electrons       12 beta electrons
       nuclear repulsion energy        62.0989653795 Hartrees.
 NAtoms=    4 NActive=    4 NUniq=    4 SFac= 1.00D+00 NAtFMM=   60 NAOKFM=F Big=F
 Integral buffers will be    131072 words long.
 Raffenetti 1 integral format.
 Two-electron integral symmetry is turned on.
 One-electron integrals computed using PRISM.
 NBasis=   161 RedAO= T EigKep=  1.25D-04  NBF=   106    55
 NBsUse=   161 1.00D-06 EigRej= -1.00D+00 NBFU=   106    55
 Initial guess from the checkpoint file:  "C:\Users\Garrett\Downloads\NanoclusterOutput\Gau-900.chk"
 B after Tr=     0.000000    0.000000    0.000000
         Rot=    1.000000    0.000000    0.000000    0.000001 Ang=   0.00 deg.
 Initial guess orbital symmetries:
       Occupied  (A') (A') (A') (A') (A') (A') (A') (A') (A") (A')
                 (A") (A')
       Virtual   (A') (A') (A") (A') (A') (A') (A') (A") (A") (A')
                 (A') (A') (A") (A') (A") (A') (A') (A') (A') (A")
                 (A") (A') (A') (A") (A') (A') (A') (A') (A') (A")
                 (A') (A') (A") (A') (A") (A") (A') (A') (A") (A')
                 (A") (A') (A') (A") (A') (A') (A") (A') (A") (A')
                 (A') (A") (A') (A') (A') (A") (A") (A') (A') (A")
                 (A') (A') (A') (A") (A') (A') (A") (A') (A') (A")
                 (A") (A") (A") (A') (A') (A') (A') (A') (A') (A")
                 (A') (A") (A') (A") (A') (A') (A') (A") (A") (A')
                 (A') (A') (A") (A") (A') (A') (A") (A') (A") (A')
                 (A') (A") (A') (A") (A') (A') (A") (A') (A') (A')
                 (A") (A") (A') (A') (A") (A') (A') (A") (A') (A')
                 (A') (A') (A") (A') (A') (A") (A') (A") (A") (A')
                 (A') (A") (A") (A") (A') (A') (A') (A") (A') (A")
                 (A") (A') (A') (A') (A') (A') (A') (A') (A')
 Keep R1 ints in memory in symmetry-blocked form, NReq=128070129.
 Requested convergence on RMS density matrix=1.00D-08 within 128 cycles.
 Requested convergence on MAX density matrix=1.00D-06.
 Requested convergence on             energy=1.00D-06.
 No special actions if energy rises.
 SCF Done:  E(RHF) =  -188.270784741     A.U. after    9 cycles
            NFock=  9  Conv=0.34D-08     -V/T= 2.0021
 ExpMin= 2.53D-02 ExpMax= 1.53D+04 ExpMxC= 5.22D+02 IAcc=3 IRadAn=         5 AccDes= 0.00D+00
 HarFok:  IExCor=  205 AccDes= 0.00D+00 IRadAn=         5 IDoV=-2 UseB2=F ITyADJ=14
 ICtDFT= 12500011 ScaDFX=  1.000000  1.000000  1.000000  1.000000
 Range of M.O.s used for correlation:     4   161
 NBasis=   161 NAE=    12 NBE=    12 NFC=     3 NFV=     0
 NROrb=    158 NOA=     9 NOB=     9 NVA=   149 NVB=   149

 **** Warning!!: The largest alpha MO coefficient is  0.26923507D+02

 Fully direct method using O(ONN) memory.
 JobTyp=1 Pass  1:  I=   4 to  12 NPSUse=  2 ParTrn=T ParDer=T DoDerP=T.
 Spin components of T(2) and E(2):
     alpha-alpha T2 =       0.2480517304D-01 E2=     -0.8622846991D-01
     alpha-beta  T2 =       0.1304870791D+00 E2=     -0.4858616637D+00
     beta-beta   T2 =       0.2480517304D-01 E2=     -0.8622846991D-01
 ANorm=    0.1086322892D+01
 E2 =    -0.6583186035D+00 EUMP2 =    -0.18892910334486D+03
          IDoAtm=1111
          Differentiating once with respect to electric field.
                with respect to dipole field.
          Differentiating once with respect to nuclear coordinates.
 Keep R1 ints in memory in symmetry-blocked form, NReq=128071153.
          There are     1 degrees of freedom in the 1st order CPHF.  IDoFFX=0 NUNeed=     1.
 LinEq1:  Iter=  0 NonCon=     1 RMS=6.47D-03 Max=1.01D-01 NDo=     1
 AX will form     1 AO Fock derivatives at one time.
 LinEq1:  Iter=  1 NonCon=     1 RMS=1.60D-03 Max=1.76D-02 NDo=     1
 LinEq1:  Iter=  2 NonCon=     1 RMS=5.58D-04 Max=6.59D-03 NDo=     1
 LinEq1:  Iter=  3 NonCon=     1 RMS=2.02D-04 Max=2.09D-03 NDo=     1
 LinEq1:  Iter=  4 NonCon=     1 RMS=6.01D-05 Max=7.66D-04 NDo=     1
 LinEq1:  Iter=  5 NonCon=     1 RMS=1.17D-05 Max=1.18D-04 NDo=     1
 LinEq1:  Iter=  6 NonCon=     1 RMS=2.53D-06 Max=2.96D-05 NDo=     1
 LinEq1:  Iter=  7 NonCon=     1 RMS=4.82D-07 Max=4.85D-06 NDo=     1
 LinEq1:  Iter=  8 NonCon=     1 RMS=7.40D-08 Max=7.11D-07 NDo=     1
 LinEq1:  Iter=  9 NonCon=     1 RMS=1.23D-08 Max=1.57D-07 NDo=     1
 LinEq1:  Iter= 10 NonCon=     1 RMS=1.65D-09 Max=2.84D-08 NDo=     1
 LinEq1:  Iter= 11 NonCon=     1 RMS=1.98D-10 Max=3.35D-09 NDo=     1
 LinEq1:  Iter= 12 NonCon=     0 RMS=2.96D-11 Max=3.29D-10 NDo=     1
 Linear equations converged to 1.000D-10 1.000D-09 after    12 iterations.
 End of Minotr F.D. properties file   721 does not exist.
 End of Minotr F.D. properties file   722 does not exist.
 End of Minotr F.D. properties file   788 does not exist.
 Calling FoFJK, ICntrl=  10002127 FMM=F ISym2X=1 I1Cent= 0 IOpClX= 0 NMat=1 NMatS=1 NMatT=0.
 ***** Axes restored to original set *****
 -------------------------------------------------------------------
 Center     Atomic                   Forces (Hartrees/Bohr)
 Number     Number              X              Y              Z
 -------------------------------------------------------------------
      1        6          -0.025413211    0.000000000   -0.011544415
      2        8          -0.000000325    0.000000000    0.000091534
      3        8           0.000069674    0.000000000   -0.000060389
      4        1           0.025343862    0.000000000    0.011513270
 -------------------------------------------------------------------
 Cartesian Forces:  Max     0.025413211 RMS     0.011379764
 -----------------------------------------------------------------------------------------------
                       Internal Coordinate Forces (Hartree/Bohr or radian)
  Cent   Atom   N1       Length/X         N2         Alpha/Y        N3         Beta/Z          J
 -----------------------------------------------------------------------------------------------
      1  C 
      2  O        1   0.000092(     1)
      3  O        1   0.000092(     2)      2  -0.000001(     4)
      4  H        1  -0.027836(     3)      2  -0.000002(     5)      3   0.000000(     6)     0
 -----------------------------------------------------------------------------------------------
 Internal  Forces:  Max     0.027836428 RMS     0.011364298

 GradGradGradGradGradGradGradGradGradGradGradGradGradGradGradGradGradGrad
 Berny optimization.
 Search for a local minimum.
 Step number   2 out of a maximum of   20
 All quantities printed in internal units (Hartrees-Bohrs-Radians)
 Update second derivatives using D2CorN and points    1    2
 DE= -9.42D-05 DEPred=-9.47D-05 R= 9.94D-01
 TightC=F SS=  1.41D+00  RLast= 2.05D-02 DXNew= 5.0454D-01 6.1491D-02
 Trust test= 9.94D-01 RLast= 2.05D-02 DXMaxT set to 3.00D-01
 The second derivative matrix:
                          R1        A1        A2        R2
           R1           1.40303
           A1           0.07530   0.48051
           A2           0.00185   0.14882   0.29771
           R2           0.07422  -0.04528   0.00028   0.16190
 ITU=  1  0
     Eigenvalues ---    0.21342   0.55852   1.409311000.00000
 RFO step:  Lambda=-1.19382334D-08 EMin= 2.13417031D-01
 Quartic linear search produced a step of -0.00797.
 Variable       Old X    -DE/DX   Delta X   Delta X   Delta X     New X
                                 (Linear)    (Quad)   (Total)
    R1        2.36944   0.00018   0.00007   0.00007   0.00013   2.36957
    A1        2.28884   0.00000  -0.00013   0.00011  -0.00002   2.28881
    A2        1.99718   0.00000   0.00007  -0.00006   0.00000   1.99718
    R2        2.26767  -0.02784   0.00000   0.00000   0.00000   2.26767
         Item               Value     Threshold  Converged?
 Maximum Force            0.000184     0.000450     YES
 RMS     Force            0.000106     0.000300     YES
 Maximum Displacement     0.000132     0.001800     YES
 RMS     Displacement     0.000067     0.001200     YES
 Predicted change in Energy=-1.215508D-08
 Optimization completed.
    -- Stationary point found.
                       ----------------------------
                       !   Optimized Parameters   !
                       ! (Angstroms and Degrees)  !
 ----------------------                            ----------------------
 !      Name          Value   Derivative information (Atomic Units)     !
 ------------------------------------------------------------------------
 !       R1          1.2539   -DE/DX =    0.0002                        !
 !       A1        131.1406   -DE/DX =    0.0                           !
 !       A2        114.43     -DE/DX =    0.0                           !
 !       R2          1.2      -DE/DX =   -0.0278                        !
 ------------------------------------------------------------------------
 GradGradGradGradGradGradGradGradGradGradGradGradGradGradGradGradGradGrad

 ---------------------------------------------------------------------------------------------------
                            Z-MATRIX (ANGSTROMS AND DEGREES)
   CD    Cent   Atom    N1       Length/X        N2       Alpha/Y        N3        Beta/Z          J
 ---------------------------------------------------------------------------------------------------
      1      1  C 
      2      2  O        1   1.253852(     1)
      3      3  O        1   1.253852(     2)      2  131.141(     4)
      4      4  H        1   1.200000(     3)      2  114.430(     5)      3  180.000(     6)      0
 ---------------------------------------------------------------------------------------------------
                         Z-Matrix orientation:                         
 ---------------------------------------------------------------------
 Center     Atomic      Atomic             Coordinates (Angstroms)
 Number     Number       Type             X           Y           Z
 ---------------------------------------------------------------------
      1          6           0        0.000000    0.000000    0.000000
      2          8           0        0.000000    0.000000    1.253852
      3          8           0        0.944272    0.000000   -0.824922
      4          1           0       -1.092561    0.000000   -0.496297
 ---------------------------------------------------------------------
                    Distance matrix (angstroms):
                    1          2          3          4
     1  C    0.000000
     2  O    1.253852   0.000000
     3  O    1.253852   2.283189   0.000000
     4  H    1.200000   2.063180   2.063173   0.000000
 Stoichiometry    CHO2(1-)
 Framework group  CS[SG(CHO2)]
 Deg. of freedom     5
 Full point group                 CS      NOp   2
 Largest Abelian subgroup         CS      NOp   2
 Largest concise Abelian subgroup C1      NOp   1
                         Standard orientation:                         
 ---------------------------------------------------------------------
 Center     Atomic      Atomic             Coordinates (Angstroms)
 Number     Number       Type             X           Y           Z
 ---------------------------------------------------------------------
      1          6           0        0.000000    0.308566    0.000000
      2          8           0       -1.141595   -0.209997    0.000000
      3          8           0        1.141594   -0.209999    0.000000
      4          1           0        0.000007    1.508566    0.000000
 ---------------------------------------------------------------------
 Rotational constants (GHZ):         105.3485905          12.1222040          10.8712732

 **********************************************************************

            Population analysis using the SCF Density.

 **********************************************************************

 Orbital symmetries:
       Occupied  (A') (A') (A') (A') (A') (A') (A') (A') (A") (A')
                 (A") (A')
       Virtual   (A') (A') (A") (A') (A') (A') (A') (A") (A") (A')
                 (A') (A') (A") (A') (A") (A') (A') (A') (A') (A")
                 (A") (A') (A') (A") (A') (A') (A') (A') (A') (A")
                 (A') (A') (A") (A') (A") (A") (A') (A') (A") (A')
                 (A') (A") (A') (A") (A') (A') (A") (A') (A") (A')
                 (A') (A") (A') (A') (A') (A") (A") (A') (A') (A")
                 (A') (A') (A') (A") (A') (A') (A") (A') (A') (A")
                 (A") (A") (A") (A') (A') (A') (A') (A') (A") (A')
                 (A') (A") (A') (A") (A') (A') (A') (A") (A") (A')
                 (A') (A') (A") (A") (A') (A') (A') (A") (A") (A')
                 (A') (A') (A") (A") (A') (A') (A") (A') (A') (A')
                 (A") (A") (A') (A') (A") (A') (A') (A") (A') (A')
                 (A') (A') (A") (A') (A') (A") (A') (A") (A") (A')
                 (A') (A") (A") (A') (A") (A') (A') (A") (A') (A")
                 (A") (A') (A') (A') (A') (A') (A') (A') (A')
 The electronic state is 1-A'.
 Alpha  occ. eigenvalues --  -20.29331 -20.29327 -11.13511  -1.15895  -1.06569
 Alpha  occ. eigenvalues --   -0.54086  -0.42770  -0.39110  -0.34490  -0.21311
 Alpha  occ. eigenvalues --   -0.19140  -0.18552
 Alpha virt. eigenvalues --    0.14494   0.21298   0.21438   0.21651   0.28190
 Alpha virt. eigenvalues --    0.31764   0.32751   0.33729   0.36592   0.37288
 Alpha virt. eigenvalues --    0.39142   0.41271   0.42206   0.45672   0.49147
 Alpha virt. eigenvalues --    0.49677   0.51626   0.54633   0.57594   0.58888
 Alpha virt. eigenvalues --    0.62071   0.69627   0.69703   0.71689   0.77053
 Alpha virt. eigenvalues --    0.82469   0.86184   0.92102   0.92298   0.95969
 Alpha virt. eigenvalues --    0.99417   1.00827   1.05079   1.05723   1.06204
 Alpha virt. eigenvalues --    1.10792   1.12453   1.12534   1.13298   1.15913
 Alpha virt. eigenvalues --    1.20807   1.21197   1.21563   1.25051   1.26300
 Alpha virt. eigenvalues --    1.27478   1.32319   1.38234   1.42328   1.43283
 Alpha virt. eigenvalues --    1.44310   1.55445   1.57169   1.62708   1.65620
 Alpha virt. eigenvalues --    1.70298   1.76556   1.79357   1.80105   1.86965
 Alpha virt. eigenvalues --    1.93117   1.99395   2.04841   2.11132   2.14150
 Alpha virt. eigenvalues --    2.22934   2.40841   2.41035   2.45154   2.50547
 Alpha virt. eigenvalues --    2.57272   2.61182   2.63356   2.63956   2.64571
 Alpha virt. eigenvalues --    2.70273   2.72542   2.73204   2.81195   2.82516
 Alpha virt. eigenvalues --    2.86006   2.88370   2.88889   2.90592   2.97096
 Alpha virt. eigenvalues --    3.09187   3.12180   3.14757   3.14963   3.27398
 Alpha virt. eigenvalues --    3.30539   3.40882   3.42498   3.55622   3.66885
 Alpha virt. eigenvalues --    3.79588   3.81664   3.81863   4.02579   4.06620
 Alpha virt. eigenvalues --    4.13138   4.27278   4.27355   4.29380   4.29479
 Alpha virt. eigenvalues --    4.47516   4.48652   4.50815   4.74819   4.77251
 Alpha virt. eigenvalues --    4.81222   5.12445   5.14275   5.15524   5.26923
 Alpha virt. eigenvalues --    5.32361   5.35966   5.39103   5.66664   6.05848
 Alpha virt. eigenvalues --    6.53392   6.54707   6.84012   6.85081   6.86779
 Alpha virt. eigenvalues --    6.87278   7.06764   7.09229   7.10440   7.18215
 Alpha virt. eigenvalues --    7.27950   7.30474   7.37860   7.42854   7.43115
 Alpha virt. eigenvalues --    7.47728   7.53649   7.54481   7.75782   7.78829
 Alpha virt. eigenvalues --    7.85306   7.85377   7.93912   8.00939   8.17034
 Alpha virt. eigenvalues --    8.17803  13.70856  15.02102  16.25114
          Condensed to atoms (all electrons):
               1          2          3          4
     1  C    4.748907   0.421440   0.421439   0.333138
     2  O    0.421440   8.405068  -0.111886  -0.046652
     3  O    0.421439  -0.111886   8.405070  -0.046652
     4  H    0.333138  -0.046652  -0.046652   0.499300
 Mulliken charges:
               1
     1  C    0.075076
     2  O   -0.667971
     3  O   -0.667971
     4  H    0.260866
 Sum of Mulliken charges =  -1.00000
 Mulliken charges with hydrogens summed into heavy atoms:
               1
     1  C    0.335942
     2  O   -0.667971
     3  O   -0.667971
 Electronic spatial extent (au):  <R**2>=            138.5916
 Charge=             -1.0000 electrons
 Dipole moment (field-independent basis, Debye):
    X=              0.0000    Y=              1.5906    Z=              0.0000  Tot=              1.5906
 Quadrupole moment (field-independent basis, Debye-Ang):
   XX=            -29.5830   YY=            -20.6303   ZZ=            -18.9777
   XY=              0.0000   XZ=              0.0000   YZ=              0.0000
 Traceless Quadrupole moment (field-independent basis, Debye-Ang):
   XX=             -6.5193   YY=              2.4334   ZZ=              4.0859
   XY=              0.0000   XZ=              0.0000   YZ=              0.0000
 Octapole moment (field-independent basis, Debye-Ang**2):
  XXX=              0.0000  YYY=             -2.3383  ZZZ=              0.0000  XYY=              0.0000
  XXY=              0.7953  XXZ=              0.0000  XZZ=              0.0000  YZZ=             -0.5083
  YYZ=              0.0000  XYZ=              0.0000
 Hexadecapole moment (field-independent basis, Debye-Ang**3):
 XXXX=           -137.5603 YYYY=            -47.0056 ZZZZ=            -19.8980 XXXY=              0.0000
 XXXZ=              0.0000 YYYX=              0.0000 YYYZ=              0.0000 ZZZX=              0.0000
 ZZZY=              0.0000 XXYY=            -28.7540 XXZZ=            -24.8533 YYZZ=            -10.8738
 XXYZ=              0.0000 YYXZ=              0.0000 ZZXY=              0.0000
 N-N= 6.209896537948D+01 E-N=-5.761314316510D+02  KE= 1.878737741231D+02
 Symmetry A'   KE= 1.802242785957D+02
 Symmetry A"   KE= 7.649495527349D+00
 1|1|UNPC-DESKTOP-F4NP0R6|POpt|RMP2-FC|Aug-CC-pVTZ|C1H1O2(1-)|GARRETT|2
 3-Jul-2018|1||# MP2 Aug-cc-pvTZ opt=(noeigen,calcfc,z-matrix)||Formate
 ||-1,1|C|O,1,R1|O,1,R1,2,A1|H,1,R2,2,A2,3,180.,0||R1=1.25385241|A1=131
 .14064189|A2=114.42998514|R2=1.2||Version=EM64W-G16RevB.01|State=1-A'|
 HF=-188.2707847|MP2=-188.9291033|RMSD=3.450e-009|RMSF=1.138e-002|Dipol
 e=-0.4226076,0.,-0.1919674|PG=CS [SG(C1H1O2)]||@


 THE CAUTIOUS SELDOM ERR...CONFUCIUS                   
 Job cpu time:       0 days  0 hours 25 minutes 49.0 seconds.
 Elapsed time:       0 days  0 hours 25 minutes 38.5 seconds.
 File lengths (MBytes):  RWF=   2790 Int=      0 D2E=      0 Chk=      4 Scr=      1
 Normal termination of Gaussian 16 at Mon Jul 23 11:19:07 2018.
