 Entering Link 1 = C:\G16W\l1.exe PID=      9724.
  
 Copyright (c) 1988-2017, Gaussian, Inc.  All Rights Reserved.
  
 This is part of the Gaussian(R) 16 program.  It is based on
 the Gaussian(R) 09 system (copyright 2009, Gaussian, Inc.),
 the Gaussian(R) 03 system (copyright 2003, Gaussian, Inc.),
 the Gaussian(R) 98 system (copyright 1998, Gaussian, Inc.),
 the Gaussian(R) 94 system (copyright 1995, Gaussian, Inc.),
 the Gaussian 92(TM) system (copyright 1992, Gaussian, Inc.),
 the Gaussian 90(TM) system (copyright 1990, Gaussian, Inc.),
 the Gaussian 88(TM) system (copyright 1988, Gaussian, Inc.),
 the Gaussian 86(TM) system (copyright 1986, Carnegie Mellon
 University), and the Gaussian 82(TM) system (copyright 1983,
 Carnegie Mellon University). Gaussian is a federally registered
 trademark of Gaussian, Inc.
  
 This software contains proprietary and confidential information,
 including trade secrets, belonging to Gaussian, Inc.
  
 This software is provided under written license and may be
 used, copied, transmitted, or stored only in accord with that
 written license.
  
 The following legend is applicable only to US Government
 contracts under FAR:
  
                    RESTRICTED RIGHTS LEGEND
  
 Use, reproduction and disclosure by the US Government is
 subject to restrictions as set forth in subparagraphs (a)
 and (c) of the Commercial Computer Software - Restricted
 Rights clause in FAR 52.227-19.
  
 Gaussian, Inc.
 340 Quinnipiac St., Bldg. 40, Wallingford CT 06492
  
  
 ---------------------------------------------------------------
 Warning -- This program may not be used in any manner that
 competes with the business of Gaussian, Inc. or will provide
 assistance to any competitor of Gaussian, Inc.  The licensee
 of this program is prohibited from giving any competitor of
 Gaussian, Inc. access to this program.  By using this program,
 the user acknowledges that Gaussian, Inc. is engaged in the
 business of creating and licensing software in the field of
 computational chemistry and represents and warrants to the
 licensee that it is not a competitor of Gaussian, Inc. and that
 it will not use this program in any manner prohibited above.
 ---------------------------------------------------------------
  

 Cite this work as:
 Gaussian 16, Revision B.01,
 M. J. Frisch, G. W. Trucks, H. B. Schlegel, G. E. Scuseria, 
 M. A. Robb, J. R. Cheeseman, G. Scalmani, V. Barone, 
 G. A. Petersson, H. Nakatsuji, X. Li, M. Caricato, A. V. Marenich, 
 J. Bloino, B. G. Janesko, R. Gomperts, B. Mennucci, H. P. Hratchian, 
 J. V. Ortiz, A. F. Izmaylov, J. L. Sonnenberg, D. Williams-Young, 
 F. Ding, F. Lipparini, F. Egidi, J. Goings, B. Peng, A. Petrone, 
 T. Henderson, D. Ranasinghe, V. G. Zakrzewski, J. Gao, N. Rega, 
 G. Zheng, W. Liang, M. Hada, M. Ehara, K. Toyota, R. Fukuda, 
 J. Hasegawa, M. Ishida, T. Nakajima, Y. Honda, O. Kitao, H. Nakai, 
 T. Vreven, K. Throssell, J. A. Montgomery, Jr., J. E. Peralta, 
 F. Ogliaro, M. J. Bearpark, J. J. Heyd, E. N. Brothers, K. N. Kudin, 
 V. N. Staroverov, T. A. Keith, R. Kobayashi, J. Normand, 
 K. Raghavachari, A. P. Rendell, J. C. Burant, S. S. Iyengar, 
 J. Tomasi, M. Cossi, J. M. Millam, M. Klene, C. Adamo, R. Cammi, 
 J. W. Ochterski, R. L. Martin, K. Morokuma, O. Farkas, 
 J. B. Foresman, and D. J. Fox, Gaussian, Inc., Wallingford CT, 2016.
 
 ******************************************
 Gaussian 16:  EM64W-G16RevB.01 16-Dec-2017
                24-Jul-2018 
 ******************************************
 %nproc=2
 Will use up to    2 processors via shared memory.
 %mem=4gb
 -----------------------------------------------
 # MP2 Aug-cc-pvTZ opt=(noeigen,calcfc,z-matrix)
 -----------------------------------------------
 1/10=4,11=1,18=40,38=1/1,3;
 2/12=2,17=6,18=5,29=3,40=1/2;
 3/5=16,6=1,7=10,11=9,25=1,30=1,71=2,140=1/1,2,3;
 4//1;
 5/5=2,38=5/2;
 8/6=3,8=1,10=1,19=11,30=-1/1;
 9/15=3,16=-3/6;
 11/6=1,8=1,15=11,17=12,24=-1,27=1,28=-2,29=300,32=6,42=3/1,2,10;
 10/6=2,21=1/2;
 8/6=4,8=1,10=1,19=11,30=-1/11,4;
 10/5=1,20=4/2;
 11/12=2,14=11,16=1,17=2,28=-2,42=3,76=2/2,10,12;
 6/7=2,8=2,9=2,10=2/1;
 7/10=1,12=2,25=1,44=2/1,2,3,16;
 1/10=4,11=1,18=40/3(2);
 2/29=3/2;
 99//99;
 2/29=3/2;
 3/5=16,6=1,7=10,11=9,25=1,30=1,71=1/1,2,3;
 4/5=5,16=3,69=1/1;
 5/5=2,38=5/2;
 8/6=4,10=1/1;
 9/15=2,16=-3/6;
 10/5=1/2;
 7/12=2/1,2,3,16;
 1/11=1,18=40/3(-8);
 2/29=3/2;
 6/7=2,8=2,9=2,10=2/1;
 99/9=10/99;
 -------
 Formate
 -------
 Symbolic Z-matrix:
 Charge = -1 Multiplicity = 1
 C
 O                    1    R1
 O                    1    R1       2    A1
 H                    1    R2       2    A2       3     180.     0
       Variables:
  R1                    1.25827                  
  R2                    1.12525                  
  A2                  114.9094                   
       Constants:
  A1                  140.                       
 

 GradGradGradGradGradGradGradGradGradGradGradGradGradGradGradGradGradGrad
 Berny optimization.
 Initialization pass.
                       ----------------------------
                       !    Initial Parameters    !
                       ! (Angstroms and Degrees)  !
 ----------------------                            ----------------------
 !      Name          Value   Derivative information (Atomic Units)     !
 ------------------------------------------------------------------------
 !       R1          1.2583   calculate D2E/DX2 analytically            !
 !       R2          1.1253   calculate D2E/DX2 analytically            !
 !       A2        114.9094   calculate D2E/DX2 analytically            !
 !       A1        140.0      frozen, calculate D2E/DX2 analytically    !
 ------------------------------------------------------------------------
 Trust Radius=3.00D-01 FncErr=1.00D-07 GrdErr=1.00D-07 EigMax=2.50D+02 EigMin=1.00D-04
 Number of steps in this run=     20 maximum allowed number of steps=    100.
 GradGradGradGradGradGradGradGradGradGradGradGradGradGradGradGradGradGrad

 ---------------------------------------------------------------------------------------------------
                            Z-MATRIX (ANGSTROMS AND DEGREES)
   CD    Cent   Atom    N1       Length/X        N2       Alpha/Y        N3        Beta/Z          J
 ---------------------------------------------------------------------------------------------------
      1      1  C 
      2      2  O        1   1.258269(     1)
      3      3  O        1   1.258269(     2)      2  140.000(     4)
      4      4  H        1   1.125251(     3)      2  114.909(     5)      3  180.000(     6)      0
 ---------------------------------------------------------------------------------------------------
                         Z-Matrix orientation:                         
 ---------------------------------------------------------------------
 Center     Atomic      Atomic             Coordinates (Angstroms)
 Number     Number       Type             X           Y           Z
 ---------------------------------------------------------------------
      1          6           0        0.000000    0.000000    0.000000
      2          8           0        0.000000    0.000000    1.258269
      3          8           0        0.808800    0.000000   -0.963890
      4          1           0       -1.020575    0.000000   -0.473938
 ---------------------------------------------------------------------
                    Distance matrix (angstroms):
                    1          2          3          4
     1  C    0.000000
     2  O    1.258269   0.000000
     3  O    1.258269   2.364773   0.000000
     4  H    1.125251   2.010502   1.893849   0.000000
 Stoichiometry    CHO2(1-)
 Framework group  CS[SG(CHO2)]
 Deg. of freedom     5
 Full point group                 CS      NOp   2
 Largest Abelian subgroup         CS      NOp   2
 Largest concise Abelian subgroup C1      NOp   1
                         Standard orientation:                         
 ---------------------------------------------------------------------
 Center     Atomic      Atomic             Coordinates (Angstroms)
 Number     Number       Type             X           Y           Z
 ---------------------------------------------------------------------
      1          6           0        0.000000    0.250667    0.000000
      2          8           0        1.189410   -0.159877    0.000000
      3          8           0       -1.175033   -0.199376    0.000000
      4          1           0       -0.115012    1.370025    0.000000
 ---------------------------------------------------------------------
 Rotational constants (GHZ):         138.7644170          11.2977828          10.4472029
 Standard basis: Aug-CC-pVTZ (5D, 7F)
 There are   129 symmetry adapted cartesian basis functions of A'  symmetry.
 There are    61 symmetry adapted cartesian basis functions of A"  symmetry.
 There are   106 symmetry adapted basis functions of A'  symmetry.
 There are    55 symmetry adapted basis functions of A"  symmetry.
   161 basis functions,   243 primitive gaussians,   190 cartesian basis functions
    12 alpha electrons       12 beta electrons
       nuclear repulsion energy        61.8579687150 Hartrees.
 NAtoms=    4 NActive=    4 NUniq=    4 SFac= 1.00D+00 NAtFMM=   60 NAOKFM=F Big=F
 Integral buffers will be    131072 words long.
 Raffenetti 1 integral format.
 Two-electron integral symmetry is turned on.
 One-electron integrals computed using PRISM.
 NBasis=   161 RedAO= T EigKep=  1.00D-04  NBF=   106    55
 NBsUse=   161 1.00D-06 EigRej= -1.00D+00 NBFU=   106    55
 ExpMin= 2.53D-02 ExpMax= 1.53D+04 ExpMxC= 5.22D+02 IAcc=3 IRadAn=         5 AccDes= 0.00D+00
 Harris functional with IExCor=  205 and IRadAn=       5 diagonalized for initial guess.
 HarFok:  IExCor=  205 AccDes= 0.00D+00 IRadAn=         5 IDoV= 1 UseB2=F ITyADJ=14
 ICtDFT=  3500011 ScaDFX=  1.000000  1.000000  1.000000  1.000000
 FoFCou: FMM=F IPFlag=           0 FMFlag=      100000 FMFlg1=           0
         NFxFlg=           0 DoJE=T BraDBF=F KetDBF=T FulRan=T
         wScrn=  0.000000 ICntrl=       500 IOpCl=  0 I1Cent=   200000004 NGrid=           0
         NMat0=    1 NMatS0=      1 NMatT0=    0 NMatD0=    1 NMtDS0=    0 NMtDT0=    0
 Petite list used in FoFCou.
 Initial guess orbital symmetries:
       Occupied  (A') (A') (A') (A') (A') (A') (A') (A') (A") (A")
                 (A') (A')
       Virtual   (A") (A') (A') (A') (A") (A') (A') (A') (A') (A")
                 (A") (A') (A') (A') (A") (A') (A') (A') (A") (A')
                 (A') (A") (A') (A') (A") (A') (A') (A') (A") (A')
                 (A') (A") (A') (A') (A") (A") (A") (A') (A') (A')
                 (A') (A') (A") (A') (A") (A") (A') (A') (A') (A")
                 (A') (A") (A') (A') (A') (A") (A') (A") (A") (A')
                 (A') (A') (A') (A') (A") (A') (A') (A") (A') (A")
                 (A") (A") (A') (A') (A") (A') (A') (A') (A") (A')
                 (A') (A") (A") (A') (A') (A') (A') (A") (A") (A')
                 (A') (A") (A') (A") (A') (A') (A') (A") (A") (A')
                 (A') (A") (A") (A') (A') (A') (A') (A") (A') (A')
                 (A") (A") (A') (A') (A") (A') (A") (A') (A') (A')
                 (A') (A') (A") (A') (A") (A') (A') (A") (A") (A')
                 (A") (A') (A") (A') (A") (A') (A") (A') (A') (A")
                 (A") (A') (A') (A') (A') (A') (A') (A') (A')
 The electronic state of the initial guess is 1-A'.
 Keep R1 ints in memory in symmetry-blocked form, NReq=128070129.
 Requested convergence on RMS density matrix=1.00D-08 within 128 cycles.
 Requested convergence on MAX density matrix=1.00D-06.
 Requested convergence on             energy=1.00D-06.
 No special actions if energy rises.
 SCF Done:  E(RHF) =  -188.265072286     A.U. after   12 cycles
            NFock= 12  Conv=0.64D-08     -V/T= 2.0017
 ExpMin= 2.53D-02 ExpMax= 1.53D+04 ExpMxC= 5.22D+02 IAcc=3 IRadAn=         5 AccDes= 0.00D+00
 HarFok:  IExCor=  205 AccDes= 0.00D+00 IRadAn=         5 IDoV=-2 UseB2=F ITyADJ=14
 ICtDFT= 12500011 ScaDFX=  1.000000  1.000000  1.000000  1.000000
 Range of M.O.s used for correlation:     4   161
 NBasis=   161 NAE=    12 NBE=    12 NFC=     3 NFV=     0
 NROrb=    158 NOA=     9 NOB=     9 NVA=   149 NVB=   149

 **** Warning!!: The largest alpha MO coefficient is  0.30420228D+02

 Disk-based method using ON**2 memory for  9 occupieds at a time.
 Permanent disk used for amplitudes=     3924660 words.
 Estimated scratch disk usage=   113146432 words.
 Actual    scratch disk usage=   109232192 words.
 JobTyp=1 Pass  1:  I=   4 to  12 NPSUse=  2 ParTrn=T ParDer=T DoDerP=T.
 (rs|ai) integrals will be sorted in core.
 Spin components of T(2) and E(2):
     alpha-alpha T2 =       0.2486712373D-01 E2=     -0.8637544647D-01
     alpha-beta  T2 =       0.1300610316D+00 E2=     -0.4862453233D+00
     beta-beta   T2 =       0.2486712373D-01 E2=     -0.8637544647D-01
 ANorm=    0.1086183815D+01
 E2 =    -0.6589962163D+00 EUMP2 =    -0.18892406850267D+03
 G2DrvN: will do     5 centers at a time, making    1 passes.
 Calling FoFCou, ICntrl=  3107 FMM=F I1Cent=   0 AccDes= 0.00D+00.
 End of G2Drv F.D. properties file   721 does not exist.
 End of G2Drv F.D. properties file   722 does not exist.
 End of G2Drv F.D. properties file   788 does not exist.
          IDoAtm=1111
          Differentiating once with respect to electric field.
                with respect to dipole field.
          Differentiating once with respect to nuclear coordinates.
 Keep R1 ints in memory in symmetry-blocked form, NReq=128071153.
          There are    15 degrees of freedom in the 1st order CPHF.  IDoFFX=6 NUNeed=    15.
     12 vectors produced by pass  0 Test12= 1.19D-14 6.67D-09 XBig12= 9.26D+00 1.39D+00.
 AX will form    12 AO Fock derivatives at one time.
     12 vectors produced by pass  1 Test12= 1.19D-14 6.67D-09 XBig12= 1.21D+00 2.56D-01.
     12 vectors produced by pass  2 Test12= 1.19D-14 6.67D-09 XBig12= 2.99D-02 3.89D-02.
     12 vectors produced by pass  3 Test12= 1.19D-14 6.67D-09 XBig12= 7.84D-04 5.32D-03.
     12 vectors produced by pass  4 Test12= 1.19D-14 6.67D-09 XBig12= 1.40D-05 7.72D-04.
     12 vectors produced by pass  5 Test12= 1.19D-14 6.67D-09 XBig12= 1.87D-07 1.10D-04.
     12 vectors produced by pass  6 Test12= 1.19D-14 6.67D-09 XBig12= 1.50D-09 1.07D-05.
     10 vectors produced by pass  7 Test12= 1.19D-14 6.67D-09 XBig12= 1.38D-11 8.93D-07.
      4 vectors produced by pass  8 Test12= 1.19D-14 6.67D-09 XBig12= 1.27D-13 9.66D-08.
      1 vectors produced by pass  9 Test12= 1.19D-14 6.67D-09 XBig12= 9.87D-16 6.85D-09.
 InvSVY:  IOpt=1 It=  1 EMax= 1.11D-15
 Solved reduced A of dimension    99 with    12 vectors.
 End of Minotr F.D. properties file   721 does not exist.
 End of Minotr F.D. properties file   722 does not exist.
 End of Minotr F.D. properties file   788 does not exist.
 MDV=   536870912.
 Form MO integral derivatives with frozen-active canonical formalism.
 Discarding MO integrals.
 Reordered first order wavefunction length =      6393888
 In DefCFB: NBatch=  1 ICI= 12 ICA=149 LFMax= 50
            Large arrays: LIAPS=   218779680 LIARS=   130792200 words.
 Semi-Direct transformation.
 ModeAB=           2 MOrb=            12 LenV=     536063259
 LASXX=     23759367 LTotXX=    23759367 LenRXX=    23759367
 LTotAB=    24195042 MaxLAS=    35056140 LenRXY=    35056140
 NonZer=    47518734 LenScr=    72043008 LnRSAI=           0
 LnScr1=           0 LExtra=           0 Total=    130858515
 MaxDsk=          -1 SrtSym=           F ITran=            4
 JobTyp=0 Pass  1:  I=   1 to  12.
 (rs|ai) integrals will be sorted in core.
 Spin components of T(2) and E(2):
     alpha-alpha T2 =       0.2486712373D-01 E2=     -0.8637544647D-01
     alpha-beta  T2 =       0.1300610316D+00 E2=     -0.4862453233D+00
     beta-beta   T2 =       0.2486712373D-01 E2=     -0.8637544647D-01
 ANorm=    0.1536095882D+01
 E2 =    -0.6589962163D+00 EUMP2 =    -0.18892406850267D+03
          IDoAtm=1111
          Differentiating once with respect to electric field.
                with respect to dipole field.
          Differentiating once with respect to nuclear coordinates.
          There are     1 degrees of freedom in the 1st order CPHF.  IDoFFX=0 NUNeed=     1.
 LinEq1:  Iter=  0 NonCon=     1 RMS=6.53D-03 Max=1.06D-01 NDo=     1
 LinEq1:  Iter=  1 NonCon=     1 RMS=1.60D-03 Max=1.63D-02 NDo=     1
 LinEq1:  Iter=  2 NonCon=     1 RMS=5.74D-04 Max=6.60D-03 NDo=     1
 LinEq1:  Iter=  3 NonCon=     1 RMS=2.02D-04 Max=1.95D-03 NDo=     1
 LinEq1:  Iter=  4 NonCon=     1 RMS=5.96D-05 Max=7.81D-04 NDo=     1
 LinEq1:  Iter=  5 NonCon=     1 RMS=1.02D-05 Max=1.19D-04 NDo=     1
 LinEq1:  Iter=  6 NonCon=     1 RMS=2.34D-06 Max=2.57D-05 NDo=     1
 LinEq1:  Iter=  7 NonCon=     1 RMS=1.08D-06 Max=1.73D-05 NDo=     1
 LinEq1:  Iter=  8 NonCon=     1 RMS=3.87D-07 Max=3.00D-06 NDo=     1
 LinEq1:  Iter=  9 NonCon=     1 RMS=7.80D-08 Max=6.96D-07 NDo=     1
 LinEq1:  Iter= 10 NonCon=     1 RMS=1.77D-08 Max=1.73D-07 NDo=     1
 LinEq1:  Iter= 11 NonCon=     1 RMS=3.55D-09 Max=3.78D-08 NDo=     1
 LinEq1:  Iter= 12 NonCon=     1 RMS=6.25D-10 Max=9.15D-09 NDo=     1
 LinEq1:  Iter= 13 NonCon=     1 RMS=7.80D-11 Max=1.49D-09 NDo=     1
 LinEq1:  Iter= 14 NonCon=     0 RMS=1.00D-11 Max=1.03D-10 NDo=     1
 Linear equations converged to 1.000D-10 1.000D-09 after    14 iterations.
 End of Minotr F.D. properties file   721 does not exist.
 End of Minotr F.D. properties file   722 does not exist.
 End of Minotr F.D. properties file   788 does not exist.
 Symmetrizing basis deriv contribution to polar:
 IMax=3 JMax=2 DiffMx= 0.00D+00
 G2DrvN: will do     5 centers at a time, making    1 passes.
 Calling FoFCou, ICntrl=  3107 FMM=F I1Cent=   0 AccDes= 0.00D+00.
 End of G2Drv F.D. properties file   721 does not exist.
 End of G2Drv F.D. properties file   722 does not exist.
 End of G2Drv F.D. properties file   788 does not exist.
 R2 and R3 integrals will be kept in memory, NReq=   332743010.
 DD1Dir will call FoFMem   1 times, MxPair=       156
 NAB=    78 NAA=     0 NBB=     0.
 Discarding MO integrals.

 **********************************************************************

            Population analysis using the SCF Density.

 **********************************************************************

 Orbital symmetries:
       Occupied  (A') (A') (A') (A') (A') (A') (A') (A') (A") (A')
                 (A") (A')
       Virtual   (A') (A') (A") (A') (A') (A') (A') (A") (A") (A')
                 (A') (A') (A") (A') (A') (A") (A') (A') (A") (A')
                 (A") (A') (A') (A") (A') (A') (A') (A') (A") (A')
                 (A') (A') (A") (A") (A') (A") (A') (A') (A") (A')
                 (A') (A") (A') (A') (A") (A') (A') (A") (A") (A')
                 (A') (A") (A') (A') (A') (A") (A') (A") (A') (A")
                 (A') (A') (A') (A') (A") (A') (A') (A") (A') (A")
                 (A") (A") (A') (A') (A") (A') (A') (A') (A") (A')
                 (A") (A') (A") (A') (A') (A') (A') (A") (A") (A')
                 (A') (A") (A') (A") (A') (A') (A") (A') (A") (A')
                 (A') (A') (A") (A") (A') (A') (A") (A') (A') (A')
                 (A") (A') (A") (A') (A") (A') (A") (A') (A') (A')
                 (A') (A') (A") (A') (A") (A') (A') (A") (A") (A')
                 (A") (A") (A') (A') (A") (A') (A") (A') (A') (A")
                 (A') (A") (A') (A') (A') (A') (A') (A') (A')
 The electronic state is 1-A'.
 Alpha  occ. eigenvalues --  -20.29920 -20.29504 -11.12894  -1.15421  -1.07394
 Alpha  occ. eigenvalues --   -0.55240  -0.42900  -0.39494  -0.34389  -0.22428
 Alpha  occ. eigenvalues --   -0.19647  -0.17398
 Alpha virt. eigenvalues --    0.14633   0.21369   0.21480   0.21536   0.28224
 Alpha virt. eigenvalues --    0.31798   0.32371   0.33251   0.37298   0.37969
 Alpha virt. eigenvalues --    0.38550   0.41658   0.42645   0.46309   0.48863
 Alpha virt. eigenvalues --    0.49149   0.52324   0.53814   0.57477   0.59067
 Alpha virt. eigenvalues --    0.63581   0.69489   0.70564   0.71830   0.77063
 Alpha virt. eigenvalues --    0.82958   0.84096   0.91901   0.94037   0.94450
 Alpha virt. eigenvalues --    0.98389   1.02382   1.03532   1.05534   1.05688
 Alpha virt. eigenvalues --    1.10205   1.11921   1.12615   1.13622   1.17324
 Alpha virt. eigenvalues --    1.20159   1.22798   1.24026   1.24389   1.26802
 Alpha virt. eigenvalues --    1.27891   1.35378   1.35637   1.44059   1.44114
 Alpha virt. eigenvalues --    1.47543   1.53288   1.58903   1.65330   1.66788
 Alpha virt. eigenvalues --    1.70713   1.77343   1.79573   1.79702   1.83171
 Alpha virt. eigenvalues --    1.92526   2.02753   2.07277   2.12278   2.15006
 Alpha virt. eigenvalues --    2.24999   2.38048   2.39391   2.48545   2.53350
 Alpha virt. eigenvalues --    2.57496   2.60432   2.61580   2.63243   2.63539
 Alpha virt. eigenvalues --    2.68055   2.70830   2.71060   2.76775   2.83543
 Alpha virt. eigenvalues --    2.87249   2.88309   2.93218   2.95257   3.01707
 Alpha virt. eigenvalues --    3.08745   3.10218   3.15800   3.17764   3.22410
 Alpha virt. eigenvalues --    3.33860   3.42152   3.42421   3.55013   3.69243
 Alpha virt. eigenvalues --    3.77580   3.82721   3.84195   3.97936   4.07391
 Alpha virt. eigenvalues --    4.19741   4.20223   4.26614   4.31669   4.35311
 Alpha virt. eigenvalues --    4.42256   4.56256   4.61807   4.69871   4.80825
 Alpha virt. eigenvalues --    4.87636   5.15092   5.20581   5.27959   5.29413
 Alpha virt. eigenvalues --    5.46112   5.48628   5.56499   5.87204   5.98361
 Alpha virt. eigenvalues --    6.52994   6.57988   6.81928   6.82703   6.87582
 Alpha virt. eigenvalues --    6.88096   7.03814   7.10209   7.11321   7.22020
 Alpha virt. eigenvalues --    7.34506   7.34822   7.35860   7.42126   7.45792
 Alpha virt. eigenvalues --    7.47762   7.53071   7.57986   7.76870   7.78715
 Alpha virt. eigenvalues --    7.85128   7.90062   7.98449   8.00125   8.08385
 Alpha virt. eigenvalues --    8.16105  14.37058  15.06852  16.69202
          Condensed to atoms (all electrons):
               1          2          3          4
     1  C    4.898761   0.404521   0.385872   0.321583
     2  O    0.404521   8.418572  -0.089851  -0.060589
     3  O    0.385872  -0.089851   8.453556  -0.076108
     4  H    0.321583  -0.060589  -0.076108   0.458255
 Mulliken charges:
               1
     1  C   -0.010737
     2  O   -0.672653
     3  O   -0.673469
     4  H    0.356859
 Sum of Mulliken charges =  -1.00000
 Mulliken charges with hydrogens summed into heavy atoms:
               1
     1  C    0.346122
     2  O   -0.672653
     3  O   -0.673469
 APT charges:
               1
     1  C    1.299066
     2  O   -1.025729
     3  O   -1.030838
     4  H   -0.242499
 Sum of APT charges =  -1.00000
 APT charges with hydrogens summed into heavy atoms:
               1
     1  C    1.056567
     2  O   -1.025729
     3  O   -1.030838
 Electronic spatial extent (au):  <R**2>=            141.5261
 Charge=             -1.0000 electrons
 Dipole moment (field-independent basis, Debye):
    X=             -0.0392    Y=              1.3970    Z=              0.0000  Tot=              1.3975
 Quadrupole moment (field-independent basis, Debye-Ang):
   XX=            -29.9958   YY=            -20.6162   ZZ=            -18.9310
   XY=             -0.2908   XZ=              0.0000   YZ=              0.0000
 Traceless Quadrupole moment (field-independent basis, Debye-Ang):
   XX=             -6.8148   YY=              2.5648   ZZ=              4.2500
   XY=             -0.2908   XZ=              0.0000   YZ=              0.0000
 Octapole moment (field-independent basis, Debye-Ang**2):
  XXX=             -0.0590  YYY=             -1.4735  ZZZ=              0.0000  XYY=              0.0110
  XXY=              1.3043  XXZ=              0.0000  XZZ=              0.0406  YZZ=             -0.2673
  YYZ=              0.0000  XYZ=              0.0000
 Hexadecapole moment (field-independent basis, Debye-Ang**3):
 XXXX=           -145.0033 YYYY=            -41.8434 ZZZZ=            -19.9051 XXXY=             -0.8299
 XXXZ=              0.0000 YYYX=             -0.7846 YYYZ=              0.0000 ZZZX=              0.0000
 ZZZY=              0.0000 XXYY=            -29.4885 XXZZ=            -26.0109 YYZZ=            -10.0195
 XXYZ=              0.0000 YYXZ=              0.0000 ZZXY=             -0.1812
 N-N= 6.185796871503D+01 E-N=-5.756624152847D+02  KE= 1.879488977876D+02
 Symmetry A'   KE= 1.803200434729D+02
 Symmetry A"   KE= 7.628854314677D+00
  Exact polarizability:  41.798  -0.044  36.950   0.000   0.000  23.958
 Approx polarizability:  28.017  -0.124  22.809   0.000   0.000  18.646
 Calling FoFJK, ICntrl=  10100127 FMM=F ISym2X=1 I1Cent= 0 IOpClX= 0 NMat=1 NMatS=1 NMatT=0.
 ***** Axes restored to original set *****
 -------------------------------------------------------------------
 Center     Atomic                   Forces (Hartrees/Bohr)
 Number     Number              X              Y              Z
 -------------------------------------------------------------------
      1        6          -0.038581978    0.000000000   -0.019322745
      2        8           0.022359943    0.000000000   -0.008683454
      3        8           0.030086172    0.000000000    0.018743138
      4        1          -0.013864137    0.000000000    0.009263061
 -------------------------------------------------------------------
 Cartesian Forces:  Max     0.038581978 RMS     0.018192967
 -----------------------------------------------------------------------------------------------
                       Internal Coordinate Forces (Hartree/Bohr or radian)
  Cent   Atom   N1       Length/X         N2         Alpha/Y        N3         Beta/Z          J
 -----------------------------------------------------------------------------------------------
      1  C 
      2  O        1  -0.008683(     1)
      3  O        1   0.004981(     2)      2  -0.083449(     4)
      4  H        1   0.008673(     3)      2  -0.030282(     5)      3   0.000000(     6)     0
 -----------------------------------------------------------------------------------------------
 Internal  Forces:  Max     0.083448835 RMS     0.036642695

 GradGradGradGradGradGradGradGradGradGradGradGradGradGradGradGradGradGrad
 Berny optimization.
 Search for a local minimum.
 Step number   1 out of a maximum of   20
 All quantities printed in internal units (Hartrees-Bohrs-Radians)
 Second derivative matrix not updated -- analytic derivatives used.
 The second derivative matrix:
                          R1        R2        A2        A1
           R1           1.37202
           R2           0.09392   0.25956
           A2          -0.02459  -0.00547   0.35340
           A1          -0.01832  -0.05545   0.20308   0.49084
 ITU=  0
     Eigenvalues ---    0.25157   0.35291   1.380501000.00000
 RFO step:  Lambda=-2.88722446D-03 EMin= 2.51573078D-01
 Linear search not attempted -- first point.
 Variable       Old X    -DE/DX   Delta X   Delta X   Delta X     New X
                                 (Linear)    (Quad)   (Total)
    R1        2.37778  -0.00370   0.00000  -0.00651  -0.00651   2.37128
    R2        2.12642   0.00867   0.00000   0.03360   0.03360   2.16002
    A2        2.00555  -0.03028   0.00000  -0.08493  -0.08493   1.92062
    A1        2.44346  -0.08345   0.00000   0.00000   0.00000   2.44346
         Item               Value     Threshold  Converged?
 Maximum Force            0.030282     0.000450     NO 
 RMS     Force            0.018311     0.000300     NO 
 Maximum Displacement     0.084925     0.001800     NO 
 RMS     Displacement     0.045782     0.001200     NO 
 Predicted change in Energy=-1.455714D-03
 GradGradGradGradGradGradGradGradGradGradGradGradGradGradGradGradGradGrad

 ---------------------------------------------------------------------------------------------------
                            Z-MATRIX (ANGSTROMS AND DEGREES)
   CD    Cent   Atom    N1       Length/X        N2       Alpha/Y        N3        Beta/Z          J
 ---------------------------------------------------------------------------------------------------
      1      1  C 
      2      2  O        1   1.254826(     1)
      3      3  O        1   1.254826(     2)      2  140.000(     4)
      4      4  H        1   1.143034(     3)      2  110.044(     5)      3  180.000(     6)      0
 ---------------------------------------------------------------------------------------------------
                         Z-Matrix orientation:                         
 ---------------------------------------------------------------------
 Center     Atomic      Atomic             Coordinates (Angstroms)
 Number     Number       Type             X           Y           Z
 ---------------------------------------------------------------------
      1          6           0        0.000000    0.000000    0.000000
      2          8           0        0.000000    0.000000    1.254826
      3          8           0        0.806587    0.000000   -0.961252
      4          1           0       -1.073803    0.000000   -0.391757
 ---------------------------------------------------------------------
                    Distance matrix (angstroms):
                    1          2          3          4
     1  C    0.000000
     2  O    1.254826   0.000000
     3  O    1.254826   2.358301   0.000000
     4  H    1.143034   1.965779   1.964737   0.000000
 Stoichiometry    CHO2(1-)
 Framework group  CS[SG(CHO2)]
 Deg. of freedom     5
 Full point group                 CS      NOp   2
 Largest Abelian subgroup         CS      NOp   2
 Largest concise Abelian subgroup C1      NOp   1
                         Standard orientation:                         
 ---------------------------------------------------------------------
 Center     Atomic      Atomic             Coordinates (Angstroms)
 Number     Number       Type             X           Y           Z
 ---------------------------------------------------------------------
      1          6           0        0.000000    0.248860    0.000000
      2          8           0        1.179216   -0.180137    0.000000
      3          8           0       -1.179086   -0.180495    0.000000
      4          1           0       -0.001042    1.391893    0.000000
 ---------------------------------------------------------------------
 Rotational constants (GHZ):         136.8277171          11.3623102          10.4911174
 Standard basis: Aug-CC-pVTZ (5D, 7F)
 There are   129 symmetry adapted cartesian basis functions of A'  symmetry.
 There are    61 symmetry adapted cartesian basis functions of A"  symmetry.
 There are   106 symmetry adapted basis functions of A'  symmetry.
 There are    55 symmetry adapted basis functions of A"  symmetry.
   161 basis functions,   243 primitive gaussians,   190 cartesian basis functions
    12 alpha electrons       12 beta electrons
       nuclear repulsion energy        61.9314197835 Hartrees.
 NAtoms=    4 NActive=    4 NUniq=    4 SFac= 1.00D+00 NAtFMM=   60 NAOKFM=F Big=F
 Integral buffers will be    131072 words long.
 Raffenetti 1 integral format.
 Two-electron integral symmetry is turned on.
 One-electron integrals computed using PRISM.
 NBasis=   161 RedAO= T EigKep=  1.06D-04  NBF=   106    55
 NBsUse=   161 1.00D-06 EigRej= -1.00D+00 NBFU=   106    55
 Initial guess from the checkpoint file:  "C:\Users\Garrett\Downloads\NanoclusterOutput\Gau-9724.chk"
 B after Tr=     0.000000    0.000000    0.000000
         Rot=    0.999940    0.000000    0.000000    0.010921 Ang=   1.25 deg.
 Initial guess orbital symmetries:
       Occupied  (A') (A') (A') (A') (A') (A') (A') (A') (A") (A')
                 (A") (A')
       Virtual   (A') (A') (A") (A') (A') (A') (A') (A") (A") (A')
                 (A') (A') (A") (A') (A') (A") (A') (A') (A") (A')
                 (A") (A') (A') (A") (A') (A') (A') (A') (A") (A')
                 (A') (A') (A") (A") (A') (A") (A') (A') (A") (A')
                 (A') (A") (A') (A') (A") (A') (A') (A") (A") (A')
                 (A') (A") (A') (A') (A') (A") (A') (A") (A') (A")
                 (A') (A') (A') (A') (A") (A') (A') (A") (A') (A")
                 (A") (A") (A') (A') (A") (A') (A') (A') (A") (A')
                 (A") (A') (A") (A') (A') (A') (A') (A") (A") (A')
                 (A') (A") (A') (A") (A') (A') (A") (A') (A") (A')
                 (A') (A') (A") (A") (A') (A') (A") (A') (A') (A')
                 (A") (A') (A") (A') (A") (A') (A") (A') (A') (A')
                 (A') (A') (A") (A') (A") (A') (A') (A") (A") (A')
                 (A") (A") (A') (A') (A") (A') (A") (A') (A') (A")
                 (A') (A") (A') (A') (A') (A') (A') (A') (A')
 ExpMin= 2.53D-02 ExpMax= 1.53D+04 ExpMxC= 5.22D+02 IAcc=3 IRadAn=         5 AccDes= 0.00D+00
 Harris functional with IExCor=  205 and IRadAn=       5 diagonalized for initial guess.
 HarFok:  IExCor=  205 AccDes= 0.00D+00 IRadAn=         5 IDoV= 1 UseB2=F ITyADJ=14
 ICtDFT=  3500011 ScaDFX=  1.000000  1.000000  1.000000  1.000000
 FoFCou: FMM=F IPFlag=           0 FMFlag=      100000 FMFlg1=           0
         NFxFlg=           0 DoJE=T BraDBF=F KetDBF=T FulRan=T
         wScrn=  0.000000 ICntrl=       500 IOpCl=  0 I1Cent=   200000004 NGrid=           0
         NMat0=    1 NMatS0=      1 NMatT0=    0 NMatD0=    1 NMtDS0=    0 NMtDT0=    0
 Petite list used in FoFCou.
 Keep R1 ints in memory in symmetry-blocked form, NReq=128070129.
 Requested convergence on RMS density matrix=1.00D-08 within 128 cycles.
 Requested convergence on MAX density matrix=1.00D-06.
 Requested convergence on             energy=1.00D-06.
 No special actions if energy rises.
 SCF Done:  E(RHF) =  -188.267012481     A.U. after   11 cycles
            NFock= 11  Conv=0.58D-08     -V/T= 2.0017
 ExpMin= 2.53D-02 ExpMax= 1.53D+04 ExpMxC= 5.22D+02 IAcc=3 IRadAn=         5 AccDes= 0.00D+00
 HarFok:  IExCor=  205 AccDes= 0.00D+00 IRadAn=         5 IDoV=-2 UseB2=F ITyADJ=14
 ICtDFT= 12500011 ScaDFX=  1.000000  1.000000  1.000000  1.000000
 Range of M.O.s used for correlation:     4   161
 NBasis=   161 NAE=    12 NBE=    12 NFC=     3 NFV=     0
 NROrb=    158 NOA=     9 NOB=     9 NVA=   149 NVB=   149

 **** Warning!!: The largest alpha MO coefficient is  0.32605416D+02

 Fully direct method using O(ONN) memory.
 JobTyp=1 Pass  1:  I=   4 to  12 NPSUse=  2 ParTrn=T ParDer=T DoDerP=T.
 Spin components of T(2) and E(2):
     alpha-alpha T2 =       0.2481169601D-01 E2=     -0.8630363185D-01
     alpha-beta  T2 =       0.1299085858D+00 E2=     -0.4859105675D+00
     beta-beta   T2 =       0.2481169601D-01 E2=     -0.8630363185D-01
 ANorm=    0.1086062603D+01
 E2 =    -0.6585178312D+00 EUMP2 =    -0.18892553031176D+03
          IDoAtm=1111
          Differentiating once with respect to electric field.
                with respect to dipole field.
          Differentiating once with respect to nuclear coordinates.
 Keep R1 ints in memory in symmetry-blocked form, NReq=128071153.
          There are     1 degrees of freedom in the 1st order CPHF.  IDoFFX=0 NUNeed=     1.
 LinEq1:  Iter=  0 NonCon=     1 RMS=6.50D-03 Max=1.06D-01 NDo=     1
 AX will form     1 AO Fock derivatives at one time.
 LinEq1:  Iter=  1 NonCon=     1 RMS=1.59D-03 Max=1.67D-02 NDo=     1
 LinEq1:  Iter=  2 NonCon=     1 RMS=5.68D-04 Max=6.48D-03 NDo=     1
 LinEq1:  Iter=  3 NonCon=     1 RMS=1.99D-04 Max=1.95D-03 NDo=     1
 LinEq1:  Iter=  4 NonCon=     1 RMS=5.87D-05 Max=7.65D-04 NDo=     1
 LinEq1:  Iter=  5 NonCon=     1 RMS=9.89D-06 Max=1.20D-04 NDo=     1
 LinEq1:  Iter=  6 NonCon=     1 RMS=2.04D-06 Max=2.49D-05 NDo=     1
 LinEq1:  Iter=  7 NonCon=     1 RMS=4.13D-07 Max=3.90D-06 NDo=     1
 LinEq1:  Iter=  8 NonCon=     1 RMS=6.83D-08 Max=6.77D-07 NDo=     1
 LinEq1:  Iter=  9 NonCon=     1 RMS=1.47D-08 Max=1.26D-07 NDo=     1
 LinEq1:  Iter= 10 NonCon=     1 RMS=6.94D-09 Max=9.77D-08 NDo=     1
 LinEq1:  Iter= 11 NonCon=     1 RMS=1.74D-09 Max=3.32D-08 NDo=     1
 LinEq1:  Iter= 12 NonCon=     1 RMS=2.35D-10 Max=3.04D-09 NDo=     1
 LinEq1:  Iter= 13 NonCon=     0 RMS=2.91D-11 Max=3.90D-10 NDo=     1
 Linear equations converged to 1.000D-10 1.000D-09 after    13 iterations.
 End of Minotr F.D. properties file   721 does not exist.
 End of Minotr F.D. properties file   722 does not exist.
 End of Minotr F.D. properties file   788 does not exist.
 Calling FoFJK, ICntrl=  10002127 FMM=F ISym2X=1 I1Cent= 0 IOpClX= 0 NMat=1 NMatS=1 NMatT=0.
 ***** Axes restored to original set *****
 -------------------------------------------------------------------
 Center     Atomic                   Forces (Hartrees/Bohr)
 Number     Number              X              Y              Z
 -------------------------------------------------------------------
      1        6          -0.048282736    0.000000000   -0.017626853
      2        8           0.027521480    0.000000000    0.000482851
      3        8           0.021556453    0.000000000    0.017301878
      4        1          -0.000795197    0.000000000   -0.000157875
 -------------------------------------------------------------------
 Cartesian Forces:  Max     0.048282736 RMS     0.018628577
 -----------------------------------------------------------------------------------------------
                       Internal Coordinate Forces (Hartree/Bohr or radian)
  Cent   Atom   N1       Length/X         N2         Alpha/Y        N3         Beta/Z          J
 -----------------------------------------------------------------------------------------------
      1  C 
      2  O        1   0.000483(     1)
      3  O        1   0.000602(     2)      2  -0.065529(     4)
      4  H        1   0.000801(     3)      2  -0.000268(     5)      3   0.000000(     6)     0
 -----------------------------------------------------------------------------------------------
 Internal  Forces:  Max     0.065529382 RMS     0.026756337

 GradGradGradGradGradGradGradGradGradGradGradGradGradGradGradGradGradGrad
 Berny optimization.
 Search for a local minimum.
 Step number   2 out of a maximum of   20
 All quantities printed in internal units (Hartrees-Bohrs-Radians)
 Update second derivatives using D2CorN and points    1    2
 DE= -1.46D-03 DEPred=-1.46D-03 R= 1.00D+00
 TightC=F SS=  1.41D+00  RLast= 9.16D-02 DXNew= 5.0454D-01 2.7469D-01
 Trust test= 1.00D+00 RLast= 9.16D-02 DXMaxT set to 3.00D-01
 The second derivative matrix:
                          R1        R2        A2        A1
           R1           1.37287
           R2           0.09198   0.25674
           A2          -0.01901  -0.00186   0.35317
           A1          -0.01874  -0.05330   0.19765   0.49084
 ITU=  1  0
     Eigenvalues ---    0.24921   0.35281   1.380761000.00000
 RFO step:  Lambda=-2.55312812D-06 EMin= 2.49208056D-01
 Quartic linear search produced a step of  0.01509.
 Variable       Old X    -DE/DX   Delta X   Delta X   Delta X     New X
                                 (Linear)    (Quad)   (Total)
    R1        2.37128   0.00109  -0.00010   0.00069   0.00059   2.37187
    R2        2.16002   0.00080   0.00051   0.00242   0.00293   2.16295
    A2        1.92062  -0.00027  -0.00128   0.00056  -0.00072   1.91990
    A1        2.44346  -0.06553   0.00000   0.00000   0.00000   2.44346
         Item               Value     Threshold  Converged?
 Maximum Force            0.001085     0.000450     NO 
 RMS     Force            0.000794     0.000300     NO 
 Maximum Displacement     0.002927     0.001800     NO 
 RMS     Displacement     0.001535     0.001200     NO 
 Predicted change in Energy=-1.577240D-06
 GradGradGradGradGradGradGradGradGradGradGradGradGradGradGradGradGradGrad

 ---------------------------------------------------------------------------------------------------
                            Z-MATRIX (ANGSTROMS AND DEGREES)
   CD    Cent   Atom    N1       Length/X        N2       Alpha/Y        N3        Beta/Z          J
 ---------------------------------------------------------------------------------------------------
      1      1  C 
      2      2  O        1   1.255138(     1)
      3      3  O        1   1.255138(     2)      2  140.000(     4)
      4      4  H        1   1.144583(     3)      2  110.002(     5)      3  180.000(     6)      0
 ---------------------------------------------------------------------------------------------------
                         Z-Matrix orientation:                         
 ---------------------------------------------------------------------
 Center     Atomic      Atomic             Coordinates (Angstroms)
 Number     Number       Type             X           Y           Z
 ---------------------------------------------------------------------
      1          6           0        0.000000    0.000000    0.000000
      2          8           0        0.000000    0.000000    1.255138
      3          8           0        0.806787    0.000000   -0.961492
      4          1           0       -1.075539    0.000000   -0.391516
 ---------------------------------------------------------------------
                    Distance matrix (angstroms):
                    1          2          3          4
     1  C    0.000000
     2  O    1.255138   0.000000
     3  O    1.255138   2.358888   0.000000
     4  H    1.144583   1.966788   1.966730   0.000000
 Stoichiometry    CHO2(1-)
 Framework group  CS[SG(CHO2)]
 Deg. of freedom     5
 Full point group                 CS      NOp   2
 Largest Abelian subgroup         CS      NOp   2
 Largest concise Abelian subgroup C1      NOp   1
                         Standard orientation:                         
 ---------------------------------------------------------------------
 Center     Atomic      Atomic             Coordinates (Angstroms)
 Number     Number       Type             X           Y           Z
 ---------------------------------------------------------------------
      1          6           0        0.000000    0.248867    0.000000
      2          8           0        1.179448   -0.180406    0.000000
      3          8           0       -1.179441   -0.180426    0.000000
      4          1           0       -0.000059    1.393450    0.000000
 ---------------------------------------------------------------------
 Rotational constants (GHZ):         136.6254659          11.3566553          10.4851066
 Standard basis: Aug-CC-pVTZ (5D, 7F)
 There are   129 symmetry adapted cartesian basis functions of A'  symmetry.
 There are    61 symmetry adapted cartesian basis functions of A"  symmetry.
 There are   106 symmetry adapted basis functions of A'  symmetry.
 There are    55 symmetry adapted basis functions of A"  symmetry.
   161 basis functions,   243 primitive gaussians,   190 cartesian basis functions
    12 alpha electrons       12 beta electrons
       nuclear repulsion energy        61.9107226591 Hartrees.
 NAtoms=    4 NActive=    4 NUniq=    4 SFac= 1.00D+00 NAtFMM=   60 NAOKFM=F Big=F
 Integral buffers will be    131072 words long.
 Raffenetti 1 integral format.
 Two-electron integral symmetry is turned on.
 One-electron integrals computed using PRISM.
 NBasis=   161 RedAO= T EigKep=  1.07D-04  NBF=   106    55
 NBsUse=   161 1.00D-06 EigRej= -1.00D+00 NBFU=   106    55
 Initial guess from the checkpoint file:  "C:\Users\Garrett\Downloads\NanoclusterOutput\Gau-9724.chk"
 B after Tr=     0.000000    0.000000    0.000000
         Rot=    1.000000    0.000000    0.000000    0.000094 Ang=   0.01 deg.
 Initial guess orbital symmetries:
       Occupied  (A') (A') (A') (A') (A') (A') (A') (A') (A") (A')
                 (A") (A')
       Virtual   (A') (A') (A") (A') (A') (A') (A') (A") (A") (A')
                 (A') (A') (A") (A') (A') (A") (A') (A') (A") (A')
                 (A") (A') (A') (A") (A') (A') (A') (A') (A') (A")
                 (A') (A') (A") (A') (A") (A") (A') (A') (A") (A')
                 (A') (A') (A") (A') (A") (A') (A") (A') (A") (A')
                 (A') (A") (A') (A') (A') (A") (A') (A') (A") (A")
                 (A') (A') (A') (A') (A") (A') (A') (A") (A') (A")
                 (A") (A") (A') (A") (A') (A') (A') (A') (A") (A')
                 (A") (A') (A") (A') (A') (A') (A') (A") (A") (A')
                 (A') (A') (A") (A") (A') (A') (A") (A') (A") (A')
                 (A') (A') (A") (A") (A') (A') (A") (A') (A') (A')
                 (A") (A') (A") (A") (A') (A') (A") (A') (A') (A')
                 (A') (A') (A") (A') (A") (A') (A') (A") (A") (A')
                 (A') (A") (A") (A') (A") (A') (A") (A') (A') (A")
                 (A') (A") (A') (A') (A') (A') (A') (A') (A')
 Keep R1 ints in memory in symmetry-blocked form, NReq=128070129.
 Requested convergence on RMS density matrix=1.00D-08 within 128 cycles.
 Requested convergence on MAX density matrix=1.00D-06.
 Requested convergence on             energy=1.00D-06.
 No special actions if energy rises.
 SCF Done:  E(RHF) =  -188.266936872     A.U. after    7 cycles
            NFock=  7  Conv=0.92D-08     -V/T= 2.0017
 ExpMin= 2.53D-02 ExpMax= 1.53D+04 ExpMxC= 5.22D+02 IAcc=3 IRadAn=         5 AccDes= 0.00D+00
 HarFok:  IExCor=  205 AccDes= 0.00D+00 IRadAn=         5 IDoV=-2 UseB2=F ITyADJ=14
 ICtDFT= 12500011 ScaDFX=  1.000000  1.000000  1.000000  1.000000
 Range of M.O.s used for correlation:     4   161
 NBasis=   161 NAE=    12 NBE=    12 NFC=     3 NFV=     0
 NROrb=    158 NOA=     9 NOB=     9 NVA=   149 NVB=   149

 **** Warning!!: The largest alpha MO coefficient is  0.32476553D+02

 Fully direct method using O(ONN) memory.
 JobTyp=1 Pass  1:  I=   4 to  12 NPSUse=  2 ParTrn=T ParDer=T DoDerP=T.
 Spin components of T(2) and E(2):
     alpha-alpha T2 =       0.2482291223D-01 E2=     -0.8631329191D-01
     alpha-beta  T2 =       0.1299754513D+00 E2=     -0.4859685635D+00
     beta-beta   T2 =       0.2482291223D-01 E2=     -0.8631329191D-01
 ANorm=    0.1086103713D+01
 E2 =    -0.6585951473D+00 EUMP2 =    -0.18892553201967D+03
          IDoAtm=1111
          Differentiating once with respect to electric field.
                with respect to dipole field.
          Differentiating once with respect to nuclear coordinates.
 Keep R1 ints in memory in symmetry-blocked form, NReq=128071153.
          There are     1 degrees of freedom in the 1st order CPHF.  IDoFFX=0 NUNeed=     1.
 LinEq1:  Iter=  0 NonCon=     1 RMS=6.50D-03 Max=1.05D-01 NDo=     1
 AX will form     1 AO Fock derivatives at one time.
 LinEq1:  Iter=  1 NonCon=     1 RMS=1.59D-03 Max=1.67D-02 NDo=     1
 LinEq1:  Iter=  2 NonCon=     1 RMS=5.69D-04 Max=6.50D-03 NDo=     1
 LinEq1:  Iter=  3 NonCon=     1 RMS=1.99D-04 Max=1.95D-03 NDo=     1
 LinEq1:  Iter=  4 NonCon=     1 RMS=5.89D-05 Max=7.67D-04 NDo=     1
 LinEq1:  Iter=  5 NonCon=     1 RMS=9.92D-06 Max=1.20D-04 NDo=     1
 LinEq1:  Iter=  6 NonCon=     1 RMS=2.05D-06 Max=2.50D-05 NDo=     1
 LinEq1:  Iter=  7 NonCon=     1 RMS=4.14D-07 Max=3.91D-06 NDo=     1
 LinEq1:  Iter=  8 NonCon=     1 RMS=6.81D-08 Max=6.80D-07 NDo=     1
 LinEq1:  Iter=  9 NonCon=     1 RMS=1.28D-08 Max=1.15D-07 NDo=     1
 LinEq1:  Iter= 10 NonCon=     1 RMS=1.68D-09 Max=3.14D-08 NDo=     1
 LinEq1:  Iter= 11 NonCon=     1 RMS=3.25D-10 Max=4.17D-09 NDo=     1
 LinEq1:  Iter= 12 NonCon=     1 RMS=1.81D-10 Max=1.95D-09 NDo=     1
 LinEq1:  Iter= 13 NonCon=     0 RMS=2.87D-11 Max=3.90D-10 NDo=     1
 Linear equations converged to 1.000D-10 1.000D-09 after    13 iterations.
 End of Minotr F.D. properties file   721 does not exist.
 End of Minotr F.D. properties file   722 does not exist.
 End of Minotr F.D. properties file   788 does not exist.
 Calling FoFJK, ICntrl=  10002127 FMM=F ISym2X=1 I1Cent= 0 IOpClX= 0 NMat=1 NMatS=1 NMatT=0.
 ***** Axes restored to original set *****
 -------------------------------------------------------------------
 Center     Atomic                   Forces (Hartrees/Bohr)
 Number     Number              X              Y              Z
 -------------------------------------------------------------------
      1        6          -0.048501859    0.000000000   -0.017656036
      2        8           0.027501205    0.000000000   -0.000011837
      3        8           0.021068754    0.000000000    0.017685322
      4        1          -0.000068100    0.000000000   -0.000017450
 -------------------------------------------------------------------
 Cartesian Forces:  Max     0.048501859 RMS     0.018657327
 -----------------------------------------------------------------------------------------------
                       Internal Coordinate Forces (Hartree/Bohr or radian)
  Cent   Atom   N1       Length/X         N2         Alpha/Y        N3         Beta/Z          J
 -----------------------------------------------------------------------------------------------
      1  C 
      2  O        1  -0.000012(     1)
      3  O        1  -0.000005(     2)      2  -0.065244(     4)
      4  H        1   0.000070(     3)      2  -0.000015(     5)      3   0.000000(     6)     0
 -----------------------------------------------------------------------------------------------
 Internal  Forces:  Max     0.065244171 RMS     0.026635838

 GradGradGradGradGradGradGradGradGradGradGradGradGradGradGradGradGradGrad
 Berny optimization.
 Search for a local minimum.
 Step number   3 out of a maximum of   20
 All quantities printed in internal units (Hartrees-Bohrs-Radians)
 Update second derivatives using D2CorN and points    1    2    3
 DE= -1.71D-06 DEPred=-1.58D-06 R= 1.08D+00
 TightC=F SS=  1.41D+00  RLast= 3.07D-03 DXNew= 5.0454D-01 9.2121D-03
 Trust test= 1.08D+00 RLast= 3.07D-03 DXMaxT set to 3.00D-01
 The second derivative matrix:
                          R1        R2        A2        A1
           R1           1.37408
           R2           0.09086   0.23363
           A2          -0.01647   0.00414   0.35303
           A1          -0.01835  -0.04928   0.19420   0.49084
 ITU=  1  1  0
     Eigenvalues ---    0.22620   0.35301   1.381531000.00000
 RFO step:  Lambda= 0.00000000D+00 EMin= 2.26198366D-01
 Quartic linear search produced a step of  0.06679.
 Variable       Old X    -DE/DX   Delta X   Delta X   Delta X     New X
                                 (Linear)    (Quad)   (Total)
    R1        2.37187  -0.00002   0.00004  -0.00007  -0.00003   2.37183
    R2        2.16295   0.00007   0.00020   0.00011   0.00031   2.16325
    A2        1.91990  -0.00001  -0.00005   0.00000  -0.00005   1.91986
    A1        2.44346  -0.06524   0.00000   0.00000   0.00000   2.44346
         Item               Value     Threshold  Converged?
 Maximum Force            0.000070     0.000450     YES
 RMS     Force            0.000042     0.000300     YES
 Maximum Displacement     0.000305     0.001800     YES
 RMS     Displacement     0.000155     0.001200     YES
 Predicted change in Energy=-1.158890D-08
 Optimization completed.
    -- Stationary point found.
                       ----------------------------
                       !   Optimized Parameters   !
                       ! (Angstroms and Degrees)  !
 ----------------------                            ----------------------
 !      Name          Value   Derivative information (Atomic Units)     !
 ------------------------------------------------------------------------
 !       R1          1.2551   -DE/DX =    0.0                           !
 !       R2          1.1446   -DE/DX =    0.0001                        !
 !       A2        110.0024   -DE/DX =    0.0                           !
 !       A1        140.0      -DE/DX =   -0.0652                        !
 ------------------------------------------------------------------------
 GradGradGradGradGradGradGradGradGradGradGradGradGradGradGradGradGradGrad

 ---------------------------------------------------------------------------------------------------
                            Z-MATRIX (ANGSTROMS AND DEGREES)
   CD    Cent   Atom    N1       Length/X        N2       Alpha/Y        N3        Beta/Z          J
 ---------------------------------------------------------------------------------------------------
      1      1  C 
      2      2  O        1   1.255138(     1)
      3      3  O        1   1.255138(     2)      2  140.000(     4)
      4      4  H        1   1.144583(     3)      2  110.002(     5)      3  180.000(     6)      0
 ---------------------------------------------------------------------------------------------------
                         Z-Matrix orientation:                         
 ---------------------------------------------------------------------
 Center     Atomic      Atomic             Coordinates (Angstroms)
 Number     Number       Type             X           Y           Z
 ---------------------------------------------------------------------
      1          6           0        0.000000    0.000000    0.000000
      2          8           0        0.000000    0.000000    1.255138
      3          8           0        0.806787    0.000000   -0.961492
      4          1           0       -1.075539    0.000000   -0.391516
 ---------------------------------------------------------------------
                    Distance matrix (angstroms):
                    1          2          3          4
     1  C    0.000000
     2  O    1.255138   0.000000
     3  O    1.255138   2.358888   0.000000
     4  H    1.144583   1.966788   1.966730   0.000000
 Stoichiometry    CHO2(1-)
 Framework group  CS[SG(CHO2)]
 Deg. of freedom     5
 Full point group                 CS      NOp   2
 Largest Abelian subgroup         CS      NOp   2
 Largest concise Abelian subgroup C1      NOp   1
                         Standard orientation:                         
 ---------------------------------------------------------------------
 Center     Atomic      Atomic             Coordinates (Angstroms)
 Number     Number       Type             X           Y           Z
 ---------------------------------------------------------------------
      1          6           0        0.000000    0.248867    0.000000
      2          8           0        1.179448   -0.180406    0.000000
      3          8           0       -1.179441   -0.180426    0.000000
      4          1           0       -0.000059    1.393450    0.000000
 ---------------------------------------------------------------------
 Rotational constants (GHZ):         136.6254659          11.3566553          10.4851066

 **********************************************************************

            Population analysis using the SCF Density.

 **********************************************************************

 Orbital symmetries:
       Occupied  (A') (A') (A') (A') (A') (A') (A') (A') (A") (A')
                 (A") (A')
       Virtual   (A') (A') (A") (A') (A') (A') (A') (A") (A") (A')
                 (A') (A') (A") (A') (A') (A") (A') (A') (A") (A')
                 (A") (A') (A') (A") (A') (A') (A') (A') (A') (A")
                 (A') (A') (A") (A') (A") (A") (A') (A') (A") (A')
                 (A') (A') (A") (A') (A") (A') (A") (A') (A") (A')
                 (A') (A") (A') (A') (A') (A") (A') (A') (A") (A")
                 (A') (A') (A') (A') (A") (A') (A') (A") (A') (A")
                 (A") (A") (A') (A") (A') (A') (A') (A') (A") (A')
                 (A") (A') (A") (A') (A') (A') (A') (A") (A") (A')
                 (A') (A') (A") (A") (A') (A') (A") (A') (A") (A')
                 (A') (A') (A") (A") (A') (A') (A") (A') (A') (A')
                 (A") (A') (A") (A") (A') (A') (A") (A') (A') (A')
                 (A') (A') (A") (A') (A") (A') (A') (A") (A") (A')
                 (A') (A") (A") (A') (A") (A') (A") (A') (A') (A")
                 (A') (A") (A') (A') (A') (A') (A') (A') (A')
 The electronic state is 1-A'.
 Alpha  occ. eigenvalues --  -20.29769 -20.29766 -11.13089  -1.15645  -1.07598
 Alpha  occ. eigenvalues --   -0.54821  -0.42900  -0.39665  -0.34584  -0.22474
 Alpha  occ. eigenvalues --   -0.19749  -0.17375
 Alpha virt. eigenvalues --    0.14659   0.21366   0.21481   0.21527   0.28260
 Alpha virt. eigenvalues --    0.31777   0.32386   0.33227   0.37334   0.38141
 Alpha virt. eigenvalues --    0.38478   0.41526   0.42667   0.46309   0.48951
 Alpha virt. eigenvalues --    0.49216   0.52142   0.53878   0.57471   0.58949
 Alpha virt. eigenvalues --    0.63539   0.69607   0.70526   0.71674   0.77086
 Alpha virt. eigenvalues --    0.83196   0.83699   0.92770   0.93360   0.93888
 Alpha virt. eigenvalues --    0.98819   1.01520   1.03642   1.05412   1.05625
 Alpha virt. eigenvalues --    1.10487   1.12114   1.12779   1.13756   1.17331
 Alpha virt. eigenvalues --    1.19809   1.23775   1.24256   1.24511   1.24611
 Alpha virt. eigenvalues --    1.27832   1.35445   1.35544   1.43539   1.44859
 Alpha virt. eigenvalues --    1.46361   1.53253   1.59241   1.65779   1.65980
 Alpha virt. eigenvalues --    1.70832   1.78550   1.79398   1.79496   1.83239
 Alpha virt. eigenvalues --    1.94156   2.03310   2.07676   2.08143   2.14635
 Alpha virt. eigenvalues --    2.22406   2.37816   2.39191   2.48355   2.53575
 Alpha virt. eigenvalues --    2.57502   2.60065   2.61670   2.63296   2.63349
 Alpha virt. eigenvalues --    2.68250   2.70914   2.70975   2.76990   2.83975
 Alpha virt. eigenvalues --    2.87737   2.88525   2.93038   2.94869   3.02673
 Alpha virt. eigenvalues --    3.08221   3.10077   3.16045   3.17481   3.27739
 Alpha virt. eigenvalues --    3.31770   3.40318   3.41657   3.54965   3.69377
 Alpha virt. eigenvalues --    3.78578   3.83192   3.84223   3.97709   4.07117
 Alpha virt. eigenvalues --    4.17689   4.20300   4.27126   4.31469   4.33364
 Alpha virt. eigenvalues --    4.43060   4.55784   4.61508   4.71319   4.80922
 Alpha virt. eigenvalues --    4.86000   5.13505   5.22011   5.23708   5.26190
 Alpha virt. eigenvalues --    5.45810   5.48999   5.50103   5.83357   5.96838
 Alpha virt. eigenvalues --    6.54047   6.56341   6.81815   6.82587   6.87450
 Alpha virt. eigenvalues --    6.88039   7.03838   7.10576   7.11061   7.21617
 Alpha virt. eigenvalues --    7.33677   7.34917   7.34988   7.41594   7.45856
 Alpha virt. eigenvalues --    7.47566   7.53109   7.58235   7.77232   7.78468
 Alpha virt. eigenvalues --    7.84828   7.90031   7.98616   7.99611   8.09174
 Alpha virt. eigenvalues --    8.16128  14.44785  15.06703  16.56294
          Condensed to atoms (all electrons):
               1          2          3          4
     1  C    4.863269   0.396212   0.396202   0.330808
     2  O    0.396212   8.429622  -0.091554  -0.067102
     3  O    0.396202  -0.091554   8.429640  -0.067109
     4  H    0.330808  -0.067102  -0.067109   0.482554
 Mulliken charges:
               1
     1  C    0.013508
     2  O   -0.667178
     3  O   -0.667178
     4  H    0.320848
 Sum of Mulliken charges =  -1.00000
 Mulliken charges with hydrogens summed into heavy atoms:
               1
     1  C    0.334356
     2  O   -0.667178
     3  O   -0.667178
 Electronic spatial extent (au):  <R**2>=            141.3351
 Charge=             -1.0000 electrons
 Dipole moment (field-independent basis, Debye):
    X=              0.0000    Y=              1.3267    Z=              0.0000  Tot=              1.3267
 Quadrupole moment (field-independent basis, Debye-Ang):
   XX=            -29.9174   YY=            -20.7272   ZZ=            -18.9363
   XY=             -0.0001   XZ=              0.0000   YZ=              0.0000
 Traceless Quadrupole moment (field-independent basis, Debye-Ang):
   XX=             -6.7237   YY=              2.4665   ZZ=              4.2573
   XY=             -0.0001   XZ=              0.0000   YZ=              0.0000
 Octapole moment (field-independent basis, Debye-Ang**2):
  XXX=              0.0000  YYY=             -1.8524  ZZZ=              0.0000  XYY=              0.0000
  XXY=              1.2300  XXZ=              0.0000  XZZ=              0.0000  YZZ=             -0.3437
  YYZ=              0.0000  XYZ=              0.0000
 Hexadecapole moment (field-independent basis, Debye-Ang**3):
 XXXX=           -144.0135 YYYY=            -42.9809 ZZZZ=            -19.9031 XXXY=             -0.0004
 XXXZ=              0.0000 YYYX=             -0.0004 YYYZ=              0.0000 ZZZX=              0.0000
 ZZZY=              0.0000 XXYY=            -29.4926 XXZZ=            -25.8616 YYZZ=            -10.1834
 XXYZ=              0.0000 YYXZ=              0.0000 ZZXY=             -0.0001
 N-N= 6.191072265913D+01 E-N=-5.757467002168D+02  KE= 1.879400747549D+02
 Symmetry A'   KE= 1.803011911526D+02
 Symmetry A"   KE= 7.638883602284D+00
 1|1|UNPC-DESKTOP-F4NP0R6|POpt|RMP2-FC|Aug-CC-pVTZ|C1H1O2(1-)|GARRETT|2
 4-Jul-2018|1||# MP2 Aug-cc-pvTZ opt=(noeigen,calcfc,z-matrix)||Formate
 ||-1,1|C|O,1,R1|O,1,R1,2,A1|H,1,R2,2,A2,3,180.,0||R1=1.25513835|R2=1.1
 4458282|A2=110.00244589|A1=140.||Version=EM64W-G16RevB.01|State=1-A'|H
 F=-188.2669369|MP2=-188.925532|RMSD=9.181e-009|RMSF=1.866e-002|Dipole=
 -0.3877202,0.,-0.1411188|PG=CS [SG(C1H1O2)]||@


 IT IS A PROFOUNDLY ERRONEOUS TRUISM ... THAT WE SHOULD CULTIVATE
 THE HABIT OF THINKING OF WHAT WE ARE DOING.
 THE PRECISE OPPOSITE IS THE CASE.
 CIVILIZATION ADVANCES BY EXTENDING THE NUMBER OF IMPORTANT OPERATIONS
 WHICH WE CAN PERFORM WITHOUT THINKING ABOUT THEM.

                                    -- ALFRED NORTH WHITEHEAD
 Job cpu time:       0 days  0 hours 55 minutes 59.0 seconds.
 Elapsed time:       0 days  0 hours 55 minutes 35.6 seconds.
 File lengths (MBytes):  RWF=   2790 Int=      0 D2E=      0 Chk=      4 Scr=      1
 Normal termination of Gaussian 16 at Tue Jul 24 08:59:50 2018.
