 Entering Link 1 = C:\G16W\l1.exe PID=      4192.
  
 Copyright (c) 1988-2017, Gaussian, Inc.  All Rights Reserved.
  
 This is part of the Gaussian(R) 16 program.  It is based on
 the Gaussian(R) 09 system (copyright 2009, Gaussian, Inc.),
 the Gaussian(R) 03 system (copyright 2003, Gaussian, Inc.),
 the Gaussian(R) 98 system (copyright 1998, Gaussian, Inc.),
 the Gaussian(R) 94 system (copyright 1995, Gaussian, Inc.),
 the Gaussian 92(TM) system (copyright 1992, Gaussian, Inc.),
 the Gaussian 90(TM) system (copyright 1990, Gaussian, Inc.),
 the Gaussian 88(TM) system (copyright 1988, Gaussian, Inc.),
 the Gaussian 86(TM) system (copyright 1986, Carnegie Mellon
 University), and the Gaussian 82(TM) system (copyright 1983,
 Carnegie Mellon University). Gaussian is a federally registered
 trademark of Gaussian, Inc.
  
 This software contains proprietary and confidential information,
 including trade secrets, belonging to Gaussian, Inc.
  
 This software is provided under written license and may be
 used, copied, transmitted, or stored only in accord with that
 written license.
  
 The following legend is applicable only to US Government
 contracts under FAR:
  
                    RESTRICTED RIGHTS LEGEND
  
 Use, reproduction and disclosure by the US Government is
 subject to restrictions as set forth in subparagraphs (a)
 and (c) of the Commercial Computer Software - Restricted
 Rights clause in FAR 52.227-19.
  
 Gaussian, Inc.
 340 Quinnipiac St., Bldg. 40, Wallingford CT 06492
  
  
 ---------------------------------------------------------------
 Warning -- This program may not be used in any manner that
 competes with the business of Gaussian, Inc. or will provide
 assistance to any competitor of Gaussian, Inc.  The licensee
 of this program is prohibited from giving any competitor of
 Gaussian, Inc. access to this program.  By using this program,
 the user acknowledges that Gaussian, Inc. is engaged in the
 business of creating and licensing software in the field of
 computational chemistry and represents and warrants to the
 licensee that it is not a competitor of Gaussian, Inc. and that
 it will not use this program in any manner prohibited above.
 ---------------------------------------------------------------
  

 Cite this work as:
 Gaussian 16, Revision B.01,
 M. J. Frisch, G. W. Trucks, H. B. Schlegel, G. E. Scuseria, 
 M. A. Robb, J. R. Cheeseman, G. Scalmani, V. Barone, 
 G. A. Petersson, H. Nakatsuji, X. Li, M. Caricato, A. V. Marenich, 
 J. Bloino, B. G. Janesko, R. Gomperts, B. Mennucci, H. P. Hratchian, 
 J. V. Ortiz, A. F. Izmaylov, J. L. Sonnenberg, D. Williams-Young, 
 F. Ding, F. Lipparini, F. Egidi, J. Goings, B. Peng, A. Petrone, 
 T. Henderson, D. Ranasinghe, V. G. Zakrzewski, J. Gao, N. Rega, 
 G. Zheng, W. Liang, M. Hada, M. Ehara, K. Toyota, R. Fukuda, 
 J. Hasegawa, M. Ishida, T. Nakajima, Y. Honda, O. Kitao, H. Nakai, 
 T. Vreven, K. Throssell, J. A. Montgomery, Jr., J. E. Peralta, 
 F. Ogliaro, M. J. Bearpark, J. J. Heyd, E. N. Brothers, K. N. Kudin, 
 V. N. Staroverov, T. A. Keith, R. Kobayashi, J. Normand, 
 K. Raghavachari, A. P. Rendell, J. C. Burant, S. S. Iyengar, 
 J. Tomasi, M. Cossi, J. M. Millam, M. Klene, C. Adamo, R. Cammi, 
 J. W. Ochterski, R. L. Martin, K. Morokuma, O. Farkas, 
 J. B. Foresman, and D. J. Fox, Gaussian, Inc., Wallingford CT, 2016.
 
 ******************************************
 Gaussian 16:  EM64W-G16RevB.01 16-Dec-2017
                23-Jul-2018 
 ******************************************
 %nproc=2
 Will use up to    2 processors via shared memory.
 %mem=4gb
 -----------------------------------------------
 # MP2 Aug-cc-pvTZ opt=(noeigen,calcfc,z-matrix)
 -----------------------------------------------
 1/10=4,11=1,18=40,38=1/1,3;
 2/12=2,17=6,18=5,29=3,40=1/2;
 3/5=16,6=1,7=10,11=9,25=1,30=1,71=2,140=1/1,2,3;
 4//1;
 5/5=2,38=5/2;
 8/6=3,8=1,10=1,19=11,30=-1/1;
 9/15=3,16=-3/6;
 11/6=1,8=1,15=11,17=12,24=-1,27=1,28=-2,29=300,32=6,42=3/1,2,10;
 10/6=2,21=1/2;
 8/6=4,8=1,10=1,19=11,30=-1/11,4;
 10/5=1,20=4/2;
 11/12=2,14=11,16=1,17=2,28=-2,42=3,76=2/2,10,12;
 6/7=2,8=2,9=2,10=2/1;
 7/10=1,12=2,25=1,44=2/1,2,3,16;
 1/10=4,11=1,18=40/3(2);
 2/29=3/2;
 99//99;
 2/29=3/2;
 3/5=16,6=1,7=10,11=9,25=1,30=1,71=1/1,2,3;
 4/5=5,16=3,69=1/1;
 5/5=2,38=5/2;
 8/6=4,10=1/1;
 9/15=2,16=-3/6;
 10/5=1/2;
 7/12=2/1,2,3,16;
 1/11=1,18=40/3(-8);
 2/29=3/2;
 6/7=2,8=2,9=2,10=2/1;
 99/9=10/99;
 -------
 Formate
 -------
 Symbolic Z-matrix:
 Charge = -1 Multiplicity = 1
 C
 O                    1    R1
 O                    1    R1       2    A1
 H                    1    R2       2    A2       3     180.     0
       Variables:
  R1                    1.25827                  
  R2                    1.12525                  
  A2                  114.9094                   
       Constants:
  A1                  110.                       
 

 GradGradGradGradGradGradGradGradGradGradGradGradGradGradGradGradGradGrad
 Berny optimization.
 Initialization pass.
                       ----------------------------
                       !    Initial Parameters    !
                       ! (Angstroms and Degrees)  !
 ----------------------                            ----------------------
 !      Name          Value   Derivative information (Atomic Units)     !
 ------------------------------------------------------------------------
 !       R1          1.2583   calculate D2E/DX2 analytically            !
 !       R2          1.1253   calculate D2E/DX2 analytically            !
 !       A2        114.9094   calculate D2E/DX2 analytically            !
 !       A1        110.0      frozen, calculate D2E/DX2 analytically    !
 ------------------------------------------------------------------------
 Trust Radius=3.00D-01 FncErr=1.00D-07 GrdErr=1.00D-07 EigMax=2.50D+02 EigMin=1.00D-04
 Number of steps in this run=     20 maximum allowed number of steps=    100.
 GradGradGradGradGradGradGradGradGradGradGradGradGradGradGradGradGradGrad

 ---------------------------------------------------------------------------------------------------
                            Z-MATRIX (ANGSTROMS AND DEGREES)
   CD    Cent   Atom    N1       Length/X        N2       Alpha/Y        N3        Beta/Z          J
 ---------------------------------------------------------------------------------------------------
      1      1  C 
      2      2  O        1   1.258269(     1)
      3      3  O        1   1.258269(     2)      2  110.000(     4)
      4      4  H        1   1.125251(     3)      2  114.909(     5)      3  180.000(     6)      0
 ---------------------------------------------------------------------------------------------------
                         Z-Matrix orientation:                         
 ---------------------------------------------------------------------
 Center     Atomic      Atomic             Coordinates (Angstroms)
 Number     Number       Type             X           Y           Z
 ---------------------------------------------------------------------
      1          6           0        0.000000    0.000000    0.000000
      2          8           0        0.000000    0.000000    1.258269
      3          8           0        1.182387    0.000000   -0.430354
      4          1           0       -1.020575    0.000000   -0.473938
 ---------------------------------------------------------------------
                    Distance matrix (angstroms):
                    1          2          3          4
     1  C    0.000000
     2  O    1.258269   0.000000
     3  O    1.258269   2.061428   0.000000
     4  H    1.125251   2.010502   2.203392   0.000000
 Stoichiometry    CHO2(1-)
 Framework group  CS[SG(CHO2)]
 Deg. of freedom     5
 Full point group                 CS      NOp   2
 Largest Abelian subgroup         CS      NOp   2
 Largest concise Abelian subgroup C1      NOp   1
                         Standard orientation:                         
 ---------------------------------------------------------------------
 Center     Atomic      Atomic             Coordinates (Angstroms)
 Number     Number       Type             X           Y           Z
 ---------------------------------------------------------------------
      1          6           0        0.000000    0.453975    0.000000
      2          8           0       -1.016903   -0.287071    0.000000
      3          8           0        1.044157   -0.248148    0.000000
      4          1           0       -0.218033    1.557901    0.000000
 ---------------------------------------------------------------------
 Rotational constants (GHZ):          70.5050488          14.8522418          12.2679390
 Standard basis: Aug-CC-pVTZ (5D, 7F)
 There are   129 symmetry adapted cartesian basis functions of A'  symmetry.
 There are    61 symmetry adapted cartesian basis functions of A"  symmetry.
 There are   106 symmetry adapted basis functions of A'  symmetry.
 There are    55 symmetry adapted basis functions of A"  symmetry.
   161 basis functions,   243 primitive gaussians,   190 cartesian basis functions
    12 alpha electrons       12 beta electrons
       nuclear repulsion energy        63.6514008566 Hartrees.
 NAtoms=    4 NActive=    4 NUniq=    4 SFac= 1.00D+00 NAtFMM=   60 NAOKFM=F Big=F
 Integral buffers will be    131072 words long.
 Raffenetti 1 integral format.
 Two-electron integral symmetry is turned on.
 One-electron integrals computed using PRISM.
 NBasis=   161 RedAO= T EigKep=  9.18D-05  NBF=   106    55
 NBsUse=   161 1.00D-06 EigRej= -1.00D+00 NBFU=   106    55
 ExpMin= 2.53D-02 ExpMax= 1.53D+04 ExpMxC= 5.22D+02 IAcc=3 IRadAn=         5 AccDes= 0.00D+00
 Harris functional with IExCor=  205 and IRadAn=       5 diagonalized for initial guess.
 HarFok:  IExCor=  205 AccDes= 0.00D+00 IRadAn=         5 IDoV= 1 UseB2=F ITyADJ=14
 ICtDFT=  3500011 ScaDFX=  1.000000  1.000000  1.000000  1.000000
 FoFCou: FMM=F IPFlag=           0 FMFlag=      100000 FMFlg1=           0
         NFxFlg=           0 DoJE=T BraDBF=F KetDBF=T FulRan=T
         wScrn=  0.000000 ICntrl=       500 IOpCl=  0 I1Cent=   200000004 NGrid=           0
         NMat0=    1 NMatS0=      1 NMatT0=    0 NMatD0=    1 NMtDS0=    0 NMtDT0=    0
 Petite list used in FoFCou.
 Initial guess orbital symmetries:
       Occupied  (A') (A') (A') (A') (A') (A') (A') (A') (A") (A')
                 (A") (A')
       Virtual   (A") (A') (A') (A') (A") (A') (A') (A') (A') (A")
                 (A") (A') (A') (A') (A") (A') (A') (A') (A") (A')
                 (A") (A') (A') (A') (A") (A') (A') (A') (A') (A")
                 (A') (A") (A') (A") (A') (A') (A") (A') (A") (A')
                 (A') (A") (A') (A") (A') (A") (A') (A') (A") (A')
                 (A') (A') (A") (A') (A') (A") (A') (A") (A') (A')
                 (A") (A') (A') (A") (A') (A') (A') (A") (A") (A')
                 (A') (A") (A") (A') (A') (A") (A') (A') (A") (A')
                 (A') (A") (A') (A') (A") (A') (A") (A") (A') (A')
                 (A') (A") (A') (A') (A") (A') (A') (A") (A') (A")
                 (A") (A') (A") (A') (A') (A') (A') (A") (A') (A')
                 (A") (A') (A") (A") (A') (A') (A') (A") (A') (A')
                 (A') (A') (A') (A") (A") (A') (A") (A') (A") (A')
                 (A") (A") (A') (A') (A") (A") (A') (A') (A') (A")
                 (A") (A') (A') (A') (A') (A') (A') (A') (A')
 The electronic state of the initial guess is 1-A'.
 Keep R1 ints in memory in symmetry-blocked form, NReq=128070129.
 Requested convergence on RMS density matrix=1.00D-08 within 128 cycles.
 Requested convergence on MAX density matrix=1.00D-06.
 Requested convergence on             energy=1.00D-06.
 No special actions if energy rises.
 SCF Done:  E(RHF) =  -188.237509112     A.U. after   13 cycles
            NFock= 13  Conv=0.42D-08     -V/T= 2.0011
 ExpMin= 2.53D-02 ExpMax= 1.53D+04 ExpMxC= 5.22D+02 IAcc=3 IRadAn=         5 AccDes= 0.00D+00
 HarFok:  IExCor=  205 AccDes= 0.00D+00 IRadAn=         5 IDoV=-2 UseB2=F ITyADJ=14
 ICtDFT= 12500011 ScaDFX=  1.000000  1.000000  1.000000  1.000000
 Range of M.O.s used for correlation:     4   161
 NBasis=   161 NAE=    12 NBE=    12 NFC=     3 NFV=     0
 NROrb=    158 NOA=     9 NOB=     9 NVA=   149 NVB=   149

 **** Warning!!: The largest alpha MO coefficient is  0.32652984D+02

 Disk-based method using ON**2 memory for  9 occupieds at a time.
 Permanent disk used for amplitudes=     3924660 words.
 Estimated scratch disk usage=   113146432 words.
 Actual    scratch disk usage=   109232192 words.
 JobTyp=1 Pass  1:  I=   4 to  12 NPSUse=  2 ParTrn=T ParDer=T DoDerP=T.
 (rs|ai) integrals will be sorted in core.
 Spin components of T(2) and E(2):
     alpha-alpha T2 =       0.2506276626D-01 E2=     -0.8678530081D-01
     alpha-beta  T2 =       0.1313749861D+00 E2=     -0.4876596262D+00
     beta-beta   T2 =       0.2506276626D-01 E2=     -0.8678530081D-01
 ANorm=    0.1086968499D+01
 E2 =    -0.6612302278D+00 EUMP2 =    -0.18889873933936D+03
 G2DrvN: will do     5 centers at a time, making    1 passes.
 Calling FoFCou, ICntrl=  3107 FMM=F I1Cent=   0 AccDes= 0.00D+00.
 End of G2Drv F.D. properties file   721 does not exist.
 End of G2Drv F.D. properties file   722 does not exist.
 End of G2Drv F.D. properties file   788 does not exist.
          IDoAtm=1111
          Differentiating once with respect to electric field.
                with respect to dipole field.
          Differentiating once with respect to nuclear coordinates.
 Keep R1 ints in memory in symmetry-blocked form, NReq=128071153.
          There are    15 degrees of freedom in the 1st order CPHF.  IDoFFX=6 NUNeed=    15.
     12 vectors produced by pass  0 Test12= 1.19D-14 6.67D-09 XBig12= 9.04D+00 9.96D-01.
 AX will form    12 AO Fock derivatives at one time.
     12 vectors produced by pass  1 Test12= 1.19D-14 6.67D-09 XBig12= 1.05D+00 3.31D-01.
     12 vectors produced by pass  2 Test12= 1.19D-14 6.67D-09 XBig12= 4.33D-02 5.58D-02.
     12 vectors produced by pass  3 Test12= 1.19D-14 6.67D-09 XBig12= 1.09D-03 7.92D-03.
     12 vectors produced by pass  4 Test12= 1.19D-14 6.67D-09 XBig12= 1.69D-05 1.03D-03.
     12 vectors produced by pass  5 Test12= 1.19D-14 6.67D-09 XBig12= 2.34D-07 1.27D-04.
     12 vectors produced by pass  6 Test12= 1.19D-14 6.67D-09 XBig12= 3.33D-09 1.77D-05.
      9 vectors produced by pass  7 Test12= 1.19D-14 6.67D-09 XBig12= 3.81D-11 1.17D-06.
      4 vectors produced by pass  8 Test12= 1.19D-14 6.67D-09 XBig12= 2.70D-13 1.36D-07.
      2 vectors produced by pass  9 Test12= 1.19D-14 6.67D-09 XBig12= 1.83D-15 9.40D-09.
 InvSVY:  IOpt=1 It=  1 EMax= 8.88D-16
 Solved reduced A of dimension    99 with    12 vectors.
 End of Minotr F.D. properties file   721 does not exist.
 End of Minotr F.D. properties file   722 does not exist.
 End of Minotr F.D. properties file   788 does not exist.
 MDV=   536870912.
 Form MO integral derivatives with frozen-active canonical formalism.
 Discarding MO integrals.
 Reordered first order wavefunction length =      6393888
 In DefCFB: NBatch=  1 ICI= 12 ICA=149 LFMax= 50
            Large arrays: LIAPS=   218779680 LIARS=   130792200 words.
 Semi-Direct transformation.
 ModeAB=           2 MOrb=            12 LenV=     536062713
 LASXX=     23759367 LTotXX=    23759367 LenRXX=    23759367
 LTotAB=    24195042 MaxLAS=    35056140 LenRXY=    35056140
 NonZer=    47518734 LenScr=    72043008 LnRSAI=           0
 LnScr1=           0 LExtra=           0 Total=    130858515
 MaxDsk=          -1 SrtSym=           F ITran=            4
 JobTyp=0 Pass  1:  I=   1 to  12.
 (rs|ai) integrals will be sorted in core.
 Spin components of T(2) and E(2):
     alpha-alpha T2 =       0.2506276626D-01 E2=     -0.8678530081D-01
     alpha-beta  T2 =       0.1313749861D+00 E2=     -0.4876596262D+00
     beta-beta   T2 =       0.2506276626D-01 E2=     -0.8678530081D-01
 ANorm=    0.1537205594D+01
 E2 =    -0.6612302278D+00 EUMP2 =    -0.18889873933936D+03
          IDoAtm=1111
          Differentiating once with respect to electric field.
                with respect to dipole field.
          Differentiating once with respect to nuclear coordinates.
          There are     1 degrees of freedom in the 1st order CPHF.  IDoFFX=0 NUNeed=     1.
 LinEq1:  Iter=  0 NonCon=     1 RMS=6.81D-03 Max=1.07D-01 NDo=     1
 LinEq1:  Iter=  1 NonCon=     1 RMS=1.72D-03 Max=1.63D-02 NDo=     1
 LinEq1:  Iter=  2 NonCon=     1 RMS=6.27D-04 Max=6.53D-03 NDo=     1
 LinEq1:  Iter=  3 NonCon=     1 RMS=2.29D-04 Max=1.96D-03 NDo=     1
 LinEq1:  Iter=  4 NonCon=     1 RMS=6.92D-05 Max=7.38D-04 NDo=     1
 LinEq1:  Iter=  5 NonCon=     1 RMS=1.49D-05 Max=1.52D-04 NDo=     1
 LinEq1:  Iter=  6 NonCon=     1 RMS=3.60D-06 Max=4.81D-05 NDo=     1
 LinEq1:  Iter=  7 NonCon=     1 RMS=1.28D-06 Max=1.20D-05 NDo=     1
 LinEq1:  Iter=  8 NonCon=     1 RMS=6.61D-07 Max=1.05D-05 NDo=     1
 LinEq1:  Iter=  9 NonCon=     1 RMS=1.59D-07 Max=1.81D-06 NDo=     1
 LinEq1:  Iter= 10 NonCon=     1 RMS=3.23D-08 Max=3.02D-07 NDo=     1
 LinEq1:  Iter= 11 NonCon=     1 RMS=5.90D-09 Max=5.59D-08 NDo=     1
 LinEq1:  Iter= 12 NonCon=     1 RMS=1.09D-09 Max=1.73D-08 NDo=     1
 LinEq1:  Iter= 13 NonCon=     1 RMS=1.67D-10 Max=3.33D-09 NDo=     1
 LinEq1:  Iter= 14 NonCon=     0 RMS=2.25D-11 Max=2.04D-10 NDo=     1
 Linear equations converged to 1.000D-10 1.000D-09 after    14 iterations.
 End of Minotr F.D. properties file   721 does not exist.
 End of Minotr F.D. properties file   722 does not exist.
 End of Minotr F.D. properties file   788 does not exist.
 Symmetrizing basis deriv contribution to polar:
 IMax=3 JMax=2 DiffMx= 0.00D+00
 G2DrvN: will do     5 centers at a time, making    1 passes.
 Calling FoFCou, ICntrl=  3107 FMM=F I1Cent=   0 AccDes= 0.00D+00.
 End of G2Drv F.D. properties file   721 does not exist.
 End of G2Drv F.D. properties file   722 does not exist.
 End of G2Drv F.D. properties file   788 does not exist.
 R2 and R3 integrals will be kept in memory, NReq=   332743010.
 DD1Dir will call FoFMem   1 times, MxPair=       156
 NAB=    78 NAA=     0 NBB=     0.
 Discarding MO integrals.

 **********************************************************************

            Population analysis using the SCF Density.

 **********************************************************************

 Orbital symmetries:
       Occupied  (A') (A') (A') (A') (A') (A') (A') (A') (A") (A')
                 (A') (A")
       Virtual   (A') (A') (A") (A') (A') (A') (A') (A") (A") (A')
                 (A') (A") (A') (A') (A") (A') (A') (A') (A') (A")
                 (A") (A') (A') (A") (A') (A') (A') (A') (A') (A')
                 (A") (A") (A') (A") (A') (A') (A') (A") (A") (A')
                 (A') (A") (A') (A') (A") (A") (A') (A') (A") (A')
                 (A') (A') (A") (A') (A') (A") (A") (A') (A') (A')
                 (A") (A') (A') (A") (A') (A') (A') (A") (A') (A")
                 (A') (A") (A") (A") (A') (A') (A') (A') (A") (A')
                 (A') (A') (A") (A') (A") (A") (A') (A") (A') (A')
                 (A') (A") (A') (A') (A") (A') (A") (A') (A') (A")
                 (A") (A') (A') (A") (A') (A') (A') (A") (A') (A')
                 (A") (A') (A") (A') (A") (A') (A') (A") (A') (A')
                 (A') (A') (A') (A") (A") (A') (A") (A') (A") (A')
                 (A") (A') (A") (A") (A') (A") (A') (A') (A') (A")
                 (A") (A') (A') (A') (A') (A') (A') (A') (A')
 The electronic state is 1-A'.
 Alpha  occ. eigenvalues --  -20.27366 -20.26518 -11.11920  -1.16021  -1.01906
 Alpha  occ. eigenvalues --   -0.56895  -0.42600  -0.36131  -0.33256  -0.21155
 Alpha  occ. eigenvalues --   -0.16235  -0.16133
 Alpha virt. eigenvalues --    0.13946   0.21061   0.21230   0.22003   0.27594
 Alpha virt. eigenvalues --    0.31761   0.33388   0.34648   0.35483   0.35765
 Alpha virt. eigenvalues --    0.40976   0.41095   0.41819   0.44373   0.48571
 Alpha virt. eigenvalues --    0.49356   0.51232   0.54760   0.56831   0.58865
 Alpha virt. eigenvalues --    0.64135   0.65950   0.70752   0.72333   0.78378
 Alpha virt. eigenvalues --    0.79493   0.89935   0.92319   0.96164   0.96462
 Alpha virt. eigenvalues --    0.98681   1.01553   1.04892   1.08631   1.08642
 Alpha virt. eigenvalues --    1.09828   1.10595   1.10914   1.13283   1.14766
 Alpha virt. eigenvalues --    1.18346   1.19162   1.23804   1.25852   1.28331
 Alpha virt. eigenvalues --    1.32497   1.33666   1.38578   1.45029   1.46080
 Alpha virt. eigenvalues --    1.52187   1.52693   1.57663   1.62714   1.65923
 Alpha virt. eigenvalues --    1.68027   1.72608   1.76136   1.81607   1.89211
 Alpha virt. eigenvalues --    1.92503   1.94635   2.06964   2.10203   2.19199
 Alpha virt. eigenvalues --    2.36413   2.41178   2.41668   2.48096   2.50970
 Alpha virt. eigenvalues --    2.55664   2.57974   2.63182   2.67472   2.67592
 Alpha virt. eigenvalues --    2.69008   2.72145   2.74935   2.77476   2.84106
 Alpha virt. eigenvalues --    2.86028   2.92531   2.92884   3.00273   3.02502
 Alpha virt. eigenvalues --    3.05947   3.09424   3.13702   3.19474   3.22671
 Alpha virt. eigenvalues --    3.40508   3.43398   3.48190   3.55916   3.58307
 Alpha virt. eigenvalues --    3.73451   3.75825   3.82641   4.05930   4.07558
 Alpha virt. eigenvalues --    4.19516   4.23524   4.29666   4.31685   4.32964
 Alpha virt. eigenvalues --    4.42255   4.46888   4.53484   4.70329   4.80720
 Alpha virt. eigenvalues --    4.87074   5.17473   5.22715   5.24636   5.26960
 Alpha virt. eigenvalues --    5.45413   5.49207   5.50870   5.82923   6.16474
 Alpha virt. eigenvalues --    6.46858   6.60924   6.85351   6.86184   6.90536
 Alpha virt. eigenvalues --    6.91236   7.06057   7.08513   7.17278   7.21311
 Alpha virt. eigenvalues --    7.23576   7.38652   7.41967   7.42502   7.48272
 Alpha virt. eigenvalues --    7.57922   7.58789   7.62785   7.68743   7.81465
 Alpha virt. eigenvalues --    7.83694   7.89576   7.99254   8.03138   8.04497
 Alpha virt. eigenvalues --    8.23650  14.36574  14.95544  16.20397
          Condensed to atoms (all electrons):
               1          2          3          4
     1  C    4.902098   0.443025   0.453794   0.240808
     2  O    0.443025   8.512731  -0.195112  -0.036976
     3  O    0.453794  -0.195112   8.490336  -0.038559
     4  H    0.240808  -0.036976  -0.038559   0.360874
 Mulliken charges:
               1
     1  C   -0.039725
     2  O   -0.723668
     3  O   -0.710459
     4  H    0.473852
 Sum of Mulliken charges =  -1.00000
 Mulliken charges with hydrogens summed into heavy atoms:
               1
     1  C    0.434127
     2  O   -0.723668
     3  O   -0.710459
 APT charges:
               1
     1  C    1.087976
     2  O   -0.994791
     3  O   -0.975475
     4  H   -0.117710
 Sum of APT charges =  -1.00000
 APT charges with hydrogens summed into heavy atoms:
               1
     1  C    0.970266
     2  O   -0.994791
     3  O   -0.975475
 Electronic spatial extent (au):  <R**2>=            128.1304
 Charge=             -1.0000 electrons
 Dipole moment (field-independent basis, Debye):
    X=             -0.1105    Y=              2.7245    Z=              0.0000  Tot=              2.7268
 Quadrupole moment (field-independent basis, Debye-Ang):
   XX=            -29.2531   YY=            -19.1199   ZZ=            -18.9787
   XY=             -0.4820   XZ=              0.0000   YZ=              0.0000
 Traceless Quadrupole moment (field-independent basis, Debye-Ang):
   XX=             -6.8025   YY=              3.3307   ZZ=              3.4719
   XY=             -0.4820   XZ=              0.0000   YZ=              0.0000
 Octapole moment (field-independent basis, Debye-Ang**2):
  XXX=             -0.1415  YYY=              0.0134  ZZZ=              0.0000  XYY=             -0.3049
  XXY=              0.6408  XXZ=              0.0000  XZZ=              0.0555  YZZ=             -0.2072
  YYZ=              0.0000  XYZ=              0.0000
 Hexadecapole moment (field-independent basis, Debye-Ang**3):
 XXXX=           -125.2417 YYYY=            -45.3461 ZZZZ=            -20.0998 XXXY=             -0.4265
 XXXZ=              0.0000 YYYX=             -0.8908 YYYZ=              0.0000 ZZZX=              0.0000
 ZZZY=              0.0000 XXYY=            -25.8995 XXZZ=            -22.8562 YYZZ=            -10.9827
 XXYZ=              0.0000 YYXZ=              0.0000 ZZXY=             -0.0034
 N-N= 6.365140085659D+01 E-N=-5.796917800260D+02  KE= 1.880366621877D+02
 Symmetry A'   KE= 1.804172718291D+02
 Symmetry A"   KE= 7.619390358537D+00
  Exact polarizability:  44.796  -0.364  35.342   0.000   0.000  23.606
 Approx polarizability:  26.121  -0.451  24.441   0.000   0.000  18.637
 Calling FoFJK, ICntrl=  10100127 FMM=F ISym2X=1 I1Cent= 0 IOpClX= 0 NMat=1 NMatS=1 NMatT=0.
 ***** Axes restored to original set *****
 -------------------------------------------------------------------
 Center     Atomic                   Forces (Hartrees/Bohr)
 Number     Number              X              Y              Z
 -------------------------------------------------------------------
      1        6           0.053701672    0.000000000    0.058787187
      2        8          -0.064779926    0.000000000    0.038143501
      3        8          -0.006974811    0.000000000   -0.084427276
      4        1           0.018053065    0.000000000   -0.012503412
 -------------------------------------------------------------------
 Cartesian Forces:  Max     0.084427276 RMS     0.040466066
 -----------------------------------------------------------------------------------------------
                       Internal Coordinate Forces (Hartree/Bohr or radian)
  Cent   Atom   N1       Length/X         N2         Alpha/Y        N3         Beta/Z          J
 -----------------------------------------------------------------------------------------------
      1  C 
      2  O        1   0.038144(     1)
      3  O        1   0.022322(     2)      2   0.194315(     4)
      4  H        1  -0.011107(     3)      2   0.040283(     5)      3   0.000000(     6)     0
 -----------------------------------------------------------------------------------------------
 Internal  Forces:  Max     0.194315455 RMS     0.083124157

 GradGradGradGradGradGradGradGradGradGradGradGradGradGradGradGradGradGrad
 Berny optimization.
 Search for a local minimum.
 Step number   1 out of a maximum of   20
 All quantities printed in internal units (Hartrees-Bohrs-Radians)
 Second derivative matrix not updated -- analytic derivatives used.
 The second derivative matrix:
                          R1        R2        A2        A1
           R1           1.57609
           R2           0.04157   0.27092
           A2           0.03123   0.00717   0.22697
           A1           0.30157  -0.02564   0.08041   0.66374
 ITU=  0
     Eigenvalues ---    0.22538   0.27046   1.578141000.00000
 RFO step:  Lambda=-9.46302774D-03 EMin= 2.25379757D-01
 Linear search not attempted -- first point.
 Variable       Old X    -DE/DX   Delta X   Delta X   Delta X     New X
                                 (Linear)    (Quad)   (Total)
    R1        2.37778   0.06047   0.00000   0.03614   0.03614   2.41392
    R2        2.12642  -0.01111   0.00000  -0.04925  -0.04925   2.07717
    A2        2.00555   0.04028   0.00000   0.16710   0.16710   2.17264
    A1        1.91986   0.19432   0.00000   0.00000   0.00000   1.91986
         Item               Value     Threshold  Converged?
 Maximum Force            0.060465     0.000450     NO 
 RMS     Force            0.042435     0.000300     NO 
 Maximum Displacement     0.167096     0.001800     NO 
 RMS     Displacement     0.088955     0.001200     NO 
 Predicted change in Energy=-4.881276D-03
 GradGradGradGradGradGradGradGradGradGradGradGradGradGradGradGradGradGrad

 ---------------------------------------------------------------------------------------------------
                            Z-MATRIX (ANGSTROMS AND DEGREES)
   CD    Cent   Atom    N1       Length/X        N2       Alpha/Y        N3        Beta/Z          J
 ---------------------------------------------------------------------------------------------------
      1      1  C 
      2      2  O        1   1.277392(     1)
      3      3  O        1   1.277392(     2)      2  110.000(     4)
      4      4  H        1   1.099191(     3)      2  124.483(     5)      3  180.000(     6)      0
 ---------------------------------------------------------------------------------------------------
                         Z-Matrix orientation:                         
 ---------------------------------------------------------------------
 Center     Atomic      Atomic             Coordinates (Angstroms)
 Number     Number       Type             X           Y           Z
 ---------------------------------------------------------------------
      1          6           0        0.000000    0.000000    0.000000
      2          8           0        0.000000    0.000000    1.277392
      3          8           0        1.200355    0.000000   -0.436894
      4          1           0       -0.906053    0.000000   -0.622324
 ---------------------------------------------------------------------
                    Distance matrix (angstroms):
                    1          2          3          4
     1  C    0.000000
     2  O    1.277392   0.000000
     3  O    1.277392   2.092756   0.000000
     4  H    1.099191   2.104721   2.114555   0.000000
 Stoichiometry    CHO2(1-)
 Framework group  CS[SG(CHO2)]
 Deg. of freedom     5
 Full point group                 CS      NOp   2
 Largest Abelian subgroup         CS      NOp   2
 Largest concise Abelian subgroup C1      NOp   1
                         Standard orientation:                         
 ---------------------------------------------------------------------
 Center     Atomic      Atomic             Coordinates (Angstroms)
 Number     Number       Type             X           Y           Z
 ---------------------------------------------------------------------
      1          6           0        0.000000    0.461903    0.000000
      2          8           0       -1.045694   -0.271755    0.000000
      3          8           0        1.047061   -0.269802    0.000000
      4          1           0       -0.010938    1.561039    0.000000
 ---------------------------------------------------------------------
 Rotational constants (GHZ):          69.1485942          14.4286888          11.9377361
 Standard basis: Aug-CC-pVTZ (5D, 7F)
 There are   129 symmetry adapted cartesian basis functions of A'  symmetry.
 There are    61 symmetry adapted cartesian basis functions of A"  symmetry.
 There are   106 symmetry adapted basis functions of A'  symmetry.
 There are    55 symmetry adapted basis functions of A"  symmetry.
   161 basis functions,   243 primitive gaussians,   190 cartesian basis functions
    12 alpha electrons       12 beta electrons
       nuclear repulsion energy        62.8544420952 Hartrees.
 NAtoms=    4 NActive=    4 NUniq=    4 SFac= 1.00D+00 NAtFMM=   60 NAOKFM=F Big=F
 Integral buffers will be    131072 words long.
 Raffenetti 1 integral format.
 Two-electron integral symmetry is turned on.
 One-electron integrals computed using PRISM.
 NBasis=   161 RedAO= T EigKep=  8.67D-05  NBF=   106    55
 NBsUse=   161 1.00D-06 EigRej= -1.00D+00 NBFU=   106    55
 Initial guess from the checkpoint file:  "C:\Users\Garrett\Downloads\NanoclusterOutput\Gau-4192.chk"
 B after Tr=     0.000000    0.000000    0.000000
         Rot=    0.999879    0.000000    0.000000    0.015582 Ang=   1.79 deg.
 Initial guess orbital symmetries:
       Occupied  (A') (A') (A') (A') (A') (A') (A') (A') (A") (A')
                 (A') (A")
       Virtual   (A') (A') (A") (A') (A') (A') (A') (A") (A") (A')
                 (A') (A") (A') (A') (A") (A') (A') (A') (A') (A")
                 (A") (A') (A') (A") (A') (A') (A') (A') (A') (A')
                 (A") (A") (A') (A") (A') (A') (A') (A") (A") (A')
                 (A') (A") (A') (A') (A") (A") (A') (A') (A") (A')
                 (A') (A') (A") (A') (A') (A") (A") (A') (A') (A')
                 (A") (A') (A') (A") (A') (A') (A') (A") (A') (A")
                 (A') (A") (A") (A") (A') (A') (A') (A') (A") (A')
                 (A') (A') (A") (A') (A") (A") (A') (A") (A') (A')
                 (A') (A") (A') (A') (A") (A') (A") (A') (A') (A")
                 (A") (A') (A') (A") (A') (A') (A') (A") (A') (A')
                 (A") (A') (A") (A') (A") (A') (A') (A") (A') (A')
                 (A') (A') (A') (A") (A") (A') (A") (A') (A") (A')
                 (A") (A') (A") (A") (A') (A") (A') (A') (A') (A")
                 (A") (A') (A') (A') (A') (A') (A') (A') (A')
 ExpMin= 2.53D-02 ExpMax= 1.53D+04 ExpMxC= 5.22D+02 IAcc=3 IRadAn=         5 AccDes= 0.00D+00
 Harris functional with IExCor=  205 and IRadAn=       5 diagonalized for initial guess.
 HarFok:  IExCor=  205 AccDes= 0.00D+00 IRadAn=         5 IDoV= 1 UseB2=F ITyADJ=14
 ICtDFT=  3500011 ScaDFX=  1.000000  1.000000  1.000000  1.000000
 FoFCou: FMM=F IPFlag=           0 FMFlag=      100000 FMFlg1=           0
         NFxFlg=           0 DoJE=T BraDBF=F KetDBF=T FulRan=T
         wScrn=  0.000000 ICntrl=       500 IOpCl=  0 I1Cent=   200000004 NGrid=           0
         NMat0=    1 NMatS0=      1 NMatT0=    0 NMatD0=    1 NMtDS0=    0 NMtDT0=    0
 Petite list used in FoFCou.
 Keep R1 ints in memory in symmetry-blocked form, NReq=128070129.
 Requested convergence on RMS density matrix=1.00D-08 within 128 cycles.
 Requested convergence on MAX density matrix=1.00D-06.
 Requested convergence on             energy=1.00D-06.
 No special actions if energy rises.
 SCF Done:  E(RHF) =  -188.240218282     A.U. after   12 cycles
            NFock= 12  Conv=0.36D-08     -V/T= 2.0016
 ExpMin= 2.53D-02 ExpMax= 1.53D+04 ExpMxC= 5.22D+02 IAcc=3 IRadAn=         5 AccDes= 0.00D+00
 HarFok:  IExCor=  205 AccDes= 0.00D+00 IRadAn=         5 IDoV=-2 UseB2=F ITyADJ=14
 ICtDFT= 12500011 ScaDFX=  1.000000  1.000000  1.000000  1.000000
 Range of M.O.s used for correlation:     4   161
 NBasis=   161 NAE=    12 NBE=    12 NFC=     3 NFV=     0
 NROrb=    158 NOA=     9 NOB=     9 NVA=   149 NVB=   149

 **** Warning!!: The largest alpha MO coefficient is  0.32583401D+02

 Fully direct method using O(ONN) memory.
 JobTyp=1 Pass  1:  I=   4 to  12 NPSUse=  2 ParTrn=T ParDer=T DoDerP=T.
 Spin components of T(2) and E(2):
     alpha-alpha T2 =       0.2540722117D-01 E2=     -0.8702771359D-01
     alpha-beta  T2 =       0.1330197300D+00 E2=     -0.4894072121D+00
     beta-beta   T2 =       0.2540722117D-01 E2=     -0.8702771359D-01
 ANorm=    0.1088041439D+01
 E2 =    -0.6634626392D+00 EUMP2 =    -0.18890368092085D+03
          IDoAtm=1111
          Differentiating once with respect to electric field.
                with respect to dipole field.
          Differentiating once with respect to nuclear coordinates.
 Keep R1 ints in memory in symmetry-blocked form, NReq=128071153.
          There are     1 degrees of freedom in the 1st order CPHF.  IDoFFX=0 NUNeed=     1.
 LinEq1:  Iter=  0 NonCon=     1 RMS=6.94D-03 Max=1.12D-01 NDo=     1
 AX will form     1 AO Fock derivatives at one time.
 LinEq1:  Iter=  1 NonCon=     1 RMS=1.79D-03 Max=2.16D-02 NDo=     1
 LinEq1:  Iter=  2 NonCon=     1 RMS=6.64D-04 Max=7.45D-03 NDo=     1
 LinEq1:  Iter=  3 NonCon=     1 RMS=2.49D-04 Max=2.84D-03 NDo=     1
 LinEq1:  Iter=  4 NonCon=     1 RMS=7.52D-05 Max=9.30D-04 NDo=     1
 LinEq1:  Iter=  5 NonCon=     1 RMS=1.65D-05 Max=1.82D-04 NDo=     1
 LinEq1:  Iter=  6 NonCon=     1 RMS=3.61D-06 Max=4.70D-05 NDo=     1
 LinEq1:  Iter=  7 NonCon=     1 RMS=7.14D-07 Max=7.08D-06 NDo=     1
 LinEq1:  Iter=  8 NonCon=     1 RMS=1.38D-07 Max=2.17D-06 NDo=     1
 LinEq1:  Iter=  9 NonCon=     1 RMS=3.18D-08 Max=3.58D-07 NDo=     1
 LinEq1:  Iter= 10 NonCon=     1 RMS=1.75D-08 Max=2.52D-07 NDo=     1
 LinEq1:  Iter= 11 NonCon=     1 RMS=3.49D-09 Max=6.36D-08 NDo=     1
 LinEq1:  Iter= 12 NonCon=     1 RMS=5.93D-10 Max=4.82D-09 NDo=     1
 LinEq1:  Iter= 13 NonCon=     1 RMS=1.04D-10 Max=1.29D-09 NDo=     1
 LinEq1:  Iter= 14 NonCon=     0 RMS=1.92D-11 Max=1.93D-10 NDo=     1
 Linear equations converged to 1.000D-10 1.000D-09 after    14 iterations.
 End of Minotr F.D. properties file   721 does not exist.
 End of Minotr F.D. properties file   722 does not exist.
 End of Minotr F.D. properties file   788 does not exist.
 Calling FoFJK, ICntrl=  10002127 FMM=F ISym2X=1 I1Cent= 0 IOpClX= 0 NMat=1 NMatS=1 NMatT=0.
 ***** Axes restored to original set *****
 -------------------------------------------------------------------
 Center     Atomic                   Forces (Hartrees/Bohr)
 Number     Number              X              Y              Z
 -------------------------------------------------------------------
      1        6           0.090016499    0.000000000    0.064016273
      2        8          -0.068247902    0.000000000    0.003378318
      3        8          -0.021187878    0.000000000   -0.065810656
      4        1          -0.000580719    0.000000000   -0.001583936
 -------------------------------------------------------------------
 Cartesian Forces:  Max     0.090016499 RMS     0.042478482
 -----------------------------------------------------------------------------------------------
                       Internal Coordinate Forces (Hartree/Bohr or radian)
  Cent   Atom   N1       Length/X         N2         Alpha/Y        N3         Beta/Z          J
 -----------------------------------------------------------------------------------------------
      1  C 
      2  O        1   0.003378(     1)
      3  O        1   0.002598(     2)      2   0.166774(     4)
      4  H        1   0.001375(     3)      2   0.002029(     5)      3   0.000000(     6)     0
 -----------------------------------------------------------------------------------------------
 Internal  Forces:  Max     0.166774045 RMS     0.068114801

 GradGradGradGradGradGradGradGradGradGradGradGradGradGradGradGradGradGrad
 Berny optimization.
 Search for a local minimum.
 Step number   2 out of a maximum of   20
 All quantities printed in internal units (Hartrees-Bohrs-Radians)
 Update second derivatives using D2CorN and points    1    2
 DE= -4.94D-03 DEPred=-4.88D-03 R= 1.01D+00
 TightC=F SS=  1.41D+00  RLast= 1.78D-01 DXNew= 5.0454D-01 5.3373D-01
 Trust test= 1.01D+00 RLast= 1.78D-01 DXMaxT set to 5.05D-01
 The second derivative matrix:
                          R1        R2        A2        A1
           R1           1.56966
           R2           0.04491   0.27379
           A2           0.01610   0.00266   0.22461
           A1           0.30268  -0.02715   0.08555   0.66374
 ITU=  1  0
     Eigenvalues ---    0.22432   0.27233   1.571411000.00000
 RFO step:  Lambda=-1.98074147D-05 EMin= 2.24322715D-01
 Quartic linear search produced a step of  0.05560.
 Variable       Old X    -DE/DX   Delta X   Delta X   Delta X     New X
                                 (Linear)    (Quad)   (Total)
    R1        2.41392   0.00598   0.00201   0.00168   0.00369   2.41761
    R2        2.07717   0.00138  -0.00274   0.00722   0.00448   2.08165
    A2        2.17264   0.00203   0.00929  -0.00037   0.00893   2.18157
    A1        1.91986   0.16677   0.00000   0.00000   0.00000   1.91986
         Item               Value     Threshold  Converged?
 Maximum Force            0.005977     0.000450     NO 
 RMS     Force            0.003730     0.000300     NO 
 Maximum Displacement     0.008926     0.001800     NO 
 RMS     Displacement     0.005324     0.001200     NO 
 Predicted change in Energy=-2.256689D-05
 GradGradGradGradGradGradGradGradGradGradGradGradGradGradGradGradGradGrad

 ---------------------------------------------------------------------------------------------------
                            Z-MATRIX (ANGSTROMS AND DEGREES)
   CD    Cent   Atom    N1       Length/X        N2       Alpha/Y        N3        Beta/Z          J
 ---------------------------------------------------------------------------------------------------
      1      1  C 
      2      2  O        1   1.279346(     1)
      3      3  O        1   1.279346(     2)      2  110.000(     4)
      4      4  H        1   1.101562(     3)      2  124.995(     5)      3  180.000(     6)      0
 ---------------------------------------------------------------------------------------------------
                         Z-Matrix orientation:                         
 ---------------------------------------------------------------------
 Center     Atomic      Atomic             Coordinates (Angstroms)
 Number     Number       Type             X           Y           Z
 ---------------------------------------------------------------------
      1          6           0        0.000000    0.000000    0.000000
      2          8           0        0.000000    0.000000    1.279346
      3          8           0        1.202192    0.000000   -0.437562
      4          1           0       -0.902405    0.000000   -0.631746
 ---------------------------------------------------------------------
                    Distance matrix (angstroms):
                    1          2          3          4
     1  C    0.000000
     2  O    1.279346   0.000000
     3  O    1.279346   2.095957   0.000000
     4  H    1.101562   2.113435   2.113536   0.000000
 Stoichiometry    CHO2(1-)
 Framework group  CS[SG(CHO2)]
 Deg. of freedom     5
 Full point group                 CS      NOp   2
 Largest Abelian subgroup         CS      NOp   2
 Largest concise Abelian subgroup C1      NOp   1
                         Standard orientation:                         
 ---------------------------------------------------------------------
 Center     Atomic      Atomic             Coordinates (Angstroms)
 Number     Number       Type             X           Y           Z
 ---------------------------------------------------------------------
      1          6           0        0.000000    0.462577    0.000000
      2          8           0       -1.047971   -0.271235    0.000000
      3          8           0        1.047986   -0.271215    0.000000
      4          1           0       -0.000113    1.564139    0.000000
 ---------------------------------------------------------------------
 Rotational constants (GHZ):          68.9152024          14.3846908          11.9006620
 Standard basis: Aug-CC-pVTZ (5D, 7F)
 There are   129 symmetry adapted cartesian basis functions of A'  symmetry.
 There are    61 symmetry adapted cartesian basis functions of A"  symmetry.
 There are   106 symmetry adapted basis functions of A'  symmetry.
 There are    55 symmetry adapted basis functions of A"  symmetry.
   161 basis functions,   243 primitive gaussians,   190 cartesian basis functions
    12 alpha electrons       12 beta electrons
       nuclear repulsion energy        62.7554385427 Hartrees.
 NAtoms=    4 NActive=    4 NUniq=    4 SFac= 1.00D+00 NAtFMM=   60 NAOKFM=F Big=F
 Integral buffers will be    131072 words long.
 Raffenetti 1 integral format.
 Two-electron integral symmetry is turned on.
 One-electron integrals computed using PRISM.
 NBasis=   161 RedAO= T EigKep=  8.73D-05  NBF=   106    55
 NBsUse=   161 1.00D-06 EigRej= -1.00D+00 NBFU=   106    55
 Initial guess from the checkpoint file:  "C:\Users\Garrett\Downloads\NanoclusterOutput\Gau-4192.chk"
 B after Tr=     0.000000    0.000000    0.000000
         Rot=    1.000000    0.000000    0.000000    0.000804 Ang=   0.09 deg.
 Initial guess orbital symmetries:
       Occupied  (A') (A') (A') (A') (A') (A') (A') (A') (A") (A')
                 (A') (A")
       Virtual   (A') (A') (A") (A') (A') (A') (A') (A") (A") (A')
                 (A") (A') (A') (A') (A") (A') (A') (A') (A') (A")
                 (A") (A') (A') (A") (A') (A') (A') (A') (A') (A')
                 (A") (A") (A') (A") (A') (A') (A') (A") (A") (A')
                 (A") (A') (A') (A') (A") (A") (A') (A') (A') (A")
                 (A') (A') (A") (A') (A') (A") (A") (A') (A') (A')
                 (A") (A') (A') (A") (A') (A') (A') (A") (A") (A')
                 (A') (A") (A") (A') (A") (A') (A') (A') (A") (A')
                 (A') (A") (A') (A") (A') (A') (A") (A") (A') (A')
                 (A') (A') (A") (A') (A") (A') (A") (A') (A") (A')
                 (A") (A') (A') (A') (A") (A') (A') (A") (A') (A')
                 (A") (A') (A") (A") (A') (A') (A") (A') (A') (A')
                 (A') (A') (A') (A") (A') (A") (A") (A') (A") (A')
                 (A") (A') (A") (A") (A') (A') (A") (A') (A') (A")
                 (A") (A') (A') (A') (A') (A') (A') (A') (A')
 Keep R1 ints in memory in symmetry-blocked form, NReq=128070129.
 Requested convergence on RMS density matrix=1.00D-08 within 128 cycles.
 Requested convergence on MAX density matrix=1.00D-06.
 Requested convergence on             energy=1.00D-06.
 No special actions if energy rises.
 SCF Done:  E(RHF) =  -188.239882690     A.U. after   10 cycles
            NFock= 10  Conv=0.42D-08     -V/T= 2.0017
 ExpMin= 2.53D-02 ExpMax= 1.53D+04 ExpMxC= 5.22D+02 IAcc=3 IRadAn=         5 AccDes= 0.00D+00
 HarFok:  IExCor=  205 AccDes= 0.00D+00 IRadAn=         5 IDoV=-2 UseB2=F ITyADJ=14
 ICtDFT= 12500011 ScaDFX=  1.000000  1.000000  1.000000  1.000000
 Range of M.O.s used for correlation:     4   161
 NBasis=   161 NAE=    12 NBE=    12 NFC=     3 NFV=     0
 NROrb=    158 NOA=     9 NOB=     9 NVA=   149 NVB=   149

 **** Warning!!: The largest alpha MO coefficient is  0.32275996D+02

 Fully direct method using O(ONN) memory.
 JobTyp=1 Pass  1:  I=   4 to  12 NPSUse=  2 ParTrn=T ParDer=T DoDerP=T.
 Spin components of T(2) and E(2):
     alpha-alpha T2 =       0.2545965804D-01 E2=     -0.8707229059D-01
     alpha-beta  T2 =       0.1333017095D+00 E2=     -0.4896777238D+00
     beta-beta   T2 =       0.2545965804D-01 E2=     -0.8707229059D-01
 ANorm=    0.1088219199D+01
 E2 =    -0.6638223049D+00 EUMP2 =    -0.18890370499529D+03
          IDoAtm=1111
          Differentiating once with respect to electric field.
                with respect to dipole field.
          Differentiating once with respect to nuclear coordinates.
 Keep R1 ints in memory in symmetry-blocked form, NReq=128071153.
          There are     1 degrees of freedom in the 1st order CPHF.  IDoFFX=0 NUNeed=     1.
 LinEq1:  Iter=  0 NonCon=     1 RMS=6.96D-03 Max=1.12D-01 NDo=     1
 AX will form     1 AO Fock derivatives at one time.
 LinEq1:  Iter=  1 NonCon=     1 RMS=1.80D-03 Max=2.22D-02 NDo=     1
 LinEq1:  Iter=  2 NonCon=     1 RMS=6.70D-04 Max=7.57D-03 NDo=     1
 LinEq1:  Iter=  3 NonCon=     1 RMS=2.52D-04 Max=2.88D-03 NDo=     1
 LinEq1:  Iter=  4 NonCon=     1 RMS=7.62D-05 Max=9.48D-04 NDo=     1
 LinEq1:  Iter=  5 NonCon=     1 RMS=1.67D-05 Max=1.87D-04 NDo=     1
 LinEq1:  Iter=  6 NonCon=     1 RMS=3.67D-06 Max=4.74D-05 NDo=     1
 LinEq1:  Iter=  7 NonCon=     1 RMS=7.24D-07 Max=7.21D-06 NDo=     1
 LinEq1:  Iter=  8 NonCon=     1 RMS=1.38D-07 Max=2.21D-06 NDo=     1
 LinEq1:  Iter=  9 NonCon=     1 RMS=2.41D-08 Max=3.46D-07 NDo=     1
 LinEq1:  Iter= 10 NonCon=     1 RMS=3.24D-09 Max=6.21D-08 NDo=     1
 LinEq1:  Iter= 11 NonCon=     1 RMS=5.43D-10 Max=6.17D-09 NDo=     1
 LinEq1:  Iter= 12 NonCon=     1 RMS=2.47D-10 Max=3.90D-09 NDo=     1
 LinEq1:  Iter= 13 NonCon=     0 RMS=6.84D-11 Max=7.51D-10 NDo=     1
 Linear equations converged to 1.000D-10 1.000D-09 after    13 iterations.
 End of Minotr F.D. properties file   721 does not exist.
 End of Minotr F.D. properties file   722 does not exist.
 End of Minotr F.D. properties file   788 does not exist.
 Calling FoFJK, ICntrl=  10002127 FMM=F ISym2X=1 I1Cent= 0 IOpClX= 0 NMat=1 NMatS=1 NMatT=0.
 ***** Axes restored to original set *****
 -------------------------------------------------------------------
 Center     Atomic                   Forces (Hartrees/Bohr)
 Number     Number              X              Y              Z
 -------------------------------------------------------------------
      1        6           0.091070441    0.000000000    0.063778467
      2        8          -0.068207032    0.000000000    0.000344387
      3        8          -0.023015003    0.000000000   -0.064216789
      4        1           0.000151594    0.000000000    0.000093936
 -------------------------------------------------------------------
 Cartesian Forces:  Max     0.091070441 RMS     0.042492503
 -----------------------------------------------------------------------------------------------
                       Internal Coordinate Forces (Hartree/Bohr or radian)
  Cent   Atom   N1       Length/X         N2         Alpha/Y        N3         Beta/Z          J
 -----------------------------------------------------------------------------------------------
      1  C 
      2  O        1   0.000344(     1)
      3  O        1   0.000336(     2)      2   0.164919(     4)
      4  H        1  -0.000178(     3)      2   0.000021(     5)      3   0.000000(     6)     0
 -----------------------------------------------------------------------------------------------
 Internal  Forces:  Max     0.164918989 RMS     0.067328222

 GradGradGradGradGradGradGradGradGradGradGradGradGradGradGradGradGradGrad
 Berny optimization.
 Search for a local minimum.
 Step number   3 out of a maximum of   20
 All quantities printed in internal units (Hartrees-Bohrs-Radians)
 Update second derivatives using D2CorN and points    1    2    3
 DE= -2.41D-05 DEPred=-2.26D-05 R= 1.07D+00
 TightC=F SS=  1.41D+00  RLast= 1.06D-02 DXNew= 8.4853D-01 3.1943D-02
 Trust test= 1.07D+00 RLast= 1.06D-02 DXMaxT set to 5.05D-01
 The second derivative matrix:
                          R1        R2        A2        A1
           R1           1.54088
           R2           0.03410   0.28083
           A2          -0.02321   0.00532   0.22305
           A1           0.30447  -0.02642   0.09110   0.66374
 ITU=  1  1  0
     Eigenvalues ---    0.22204   0.28052   1.542201000.00000
 RFO step:  Lambda=-3.76910022D-07 EMin= 2.22040551D-01
 Quartic linear search produced a step of  0.04308.
 Variable       Old X    -DE/DX   Delta X   Delta X   Delta X     New X
                                 (Linear)    (Quad)   (Total)
    R1        2.41761   0.00068   0.00016   0.00031   0.00047   2.41808
    R2        2.08165  -0.00018   0.00019  -0.00090  -0.00071   2.08094
    A2        2.18157   0.00002   0.00038  -0.00024   0.00015   2.18172
    A1        1.91986   0.16492   0.00000   0.00000   0.00000   1.91986
         Item               Value     Threshold  Converged?
 Maximum Force            0.000681     0.000450     NO 
 RMS     Force            0.000406     0.000300     NO 
 Maximum Displacement     0.000711     0.001800     YES
 RMS     Displacement     0.000432     0.001200     YES
 Predicted change in Energy=-2.196130D-07
 GradGradGradGradGradGradGradGradGradGradGradGradGradGradGradGradGradGrad

 ---------------------------------------------------------------------------------------------------
                            Z-MATRIX (ANGSTROMS AND DEGREES)
   CD    Cent   Atom    N1       Length/X        N2       Alpha/Y        N3        Beta/Z          J
 ---------------------------------------------------------------------------------------------------
      1      1  C 
      2      2  O        1   1.279594(     1)
      3      3  O        1   1.279594(     2)      2  110.000(     4)
      4      4  H        1   1.101186(     3)      2  125.003(     5)      3  180.000(     6)      0
 ---------------------------------------------------------------------------------------------------
                         Z-Matrix orientation:                         
 ---------------------------------------------------------------------
 Center     Atomic      Atomic             Coordinates (Angstroms)
 Number     Number       Type             X           Y           Z
 ---------------------------------------------------------------------
      1          6           0        0.000000    0.000000    0.000000
      2          8           0        0.000000    0.000000    1.279594
      3          8           0        1.202425    0.000000   -0.437647
      4          1           0       -0.902003    0.000000   -0.631664
 ---------------------------------------------------------------------
                    Distance matrix (angstroms):
                    1          2          3          4
     1  C    0.000000
     2  O    1.279594   0.000000
     3  O    1.279594   2.096364   0.000000
     4  H    1.101186   2.113414   2.113353   0.000000
 Stoichiometry    CHO2(1-)
 Framework group  CS[SG(CHO2)]
 Deg. of freedom     5
 Full point group                 CS      NOp   2
 Largest Abelian subgroup         CS      NOp   2
 Largest concise Abelian subgroup C1      NOp   1
                         Standard orientation:                         
 ---------------------------------------------------------------------
 Center     Atomic      Atomic             Coordinates (Angstroms)
 Number     Number       Type             X           Y           Z
 ---------------------------------------------------------------------
      1          6           0        0.000000    0.462693    0.000000
      2          8           0       -1.048186   -0.271246    0.000000
      3          8           0        1.048178   -0.271258    0.000000
      4          1           0        0.000067    1.563878    0.000000
 ---------------------------------------------------------------------
 Rotational constants (GHZ):          68.9062990          14.3791049          11.8965732
 Standard basis: Aug-CC-pVTZ (5D, 7F)
 There are   129 symmetry adapted cartesian basis functions of A'  symmetry.
 There are    61 symmetry adapted cartesian basis functions of A"  symmetry.
 There are   106 symmetry adapted basis functions of A'  symmetry.
 There are    55 symmetry adapted basis functions of A"  symmetry.
   161 basis functions,   243 primitive gaussians,   190 cartesian basis functions
    12 alpha electrons       12 beta electrons
       nuclear repulsion energy        62.7457679272 Hartrees.
 NAtoms=    4 NActive=    4 NUniq=    4 SFac= 1.00D+00 NAtFMM=   60 NAOKFM=F Big=F
 Integral buffers will be    131072 words long.
 Raffenetti 1 integral format.
 Two-electron integral symmetry is turned on.
 One-electron integrals computed using PRISM.
 NBasis=   161 RedAO= T EigKep=  8.73D-05  NBF=   106    55
 NBsUse=   161 1.00D-06 EigRej= -1.00D+00 NBFU=   106    55
 Initial guess from the checkpoint file:  "C:\Users\Garrett\Downloads\NanoclusterOutput\Gau-4192.chk"
 B after Tr=     0.000000    0.000000    0.000000
         Rot=    1.000000    0.000000    0.000000    0.000013 Ang=   0.00 deg.
 Initial guess orbital symmetries:
       Occupied  (A') (A') (A') (A') (A') (A') (A') (A') (A") (A')
                 (A') (A")
       Virtual   (A') (A') (A") (A') (A') (A') (A') (A") (A") (A')
                 (A") (A') (A') (A') (A") (A') (A') (A') (A') (A")
                 (A") (A') (A') (A") (A') (A') (A') (A') (A') (A')
                 (A") (A") (A') (A") (A') (A') (A') (A") (A") (A')
                 (A") (A') (A') (A') (A") (A") (A') (A') (A') (A")
                 (A') (A') (A") (A') (A') (A") (A") (A') (A') (A')
                 (A") (A') (A') (A") (A') (A') (A') (A") (A") (A')
                 (A') (A") (A") (A') (A") (A') (A') (A') (A") (A')
                 (A') (A") (A') (A") (A') (A') (A") (A") (A') (A')
                 (A') (A') (A") (A') (A") (A') (A") (A') (A") (A')
                 (A") (A') (A') (A') (A") (A') (A') (A") (A') (A')
                 (A") (A') (A") (A") (A') (A') (A") (A') (A') (A')
                 (A') (A') (A') (A") (A') (A") (A") (A') (A") (A')
                 (A") (A') (A") (A") (A') (A') (A") (A') (A') (A")
                 (A") (A') (A') (A') (A') (A') (A') (A') (A')
 Keep R1 ints in memory in symmetry-blocked form, NReq=128070129.
 Requested convergence on RMS density matrix=1.00D-08 within 128 cycles.
 Requested convergence on MAX density matrix=1.00D-06.
 Requested convergence on             energy=1.00D-06.
 No special actions if energy rises.
 SCF Done:  E(RHF) =  -188.239846262     A.U. after    7 cycles
            NFock=  7  Conv=0.30D-08     -V/T= 2.0017
 ExpMin= 2.53D-02 ExpMax= 1.53D+04 ExpMxC= 5.22D+02 IAcc=3 IRadAn=         5 AccDes= 0.00D+00
 HarFok:  IExCor=  205 AccDes= 0.00D+00 IRadAn=         5 IDoV=-2 UseB2=F ITyADJ=14
 ICtDFT= 12500011 ScaDFX=  1.000000  1.000000  1.000000  1.000000
 Range of M.O.s used for correlation:     4   161
 NBasis=   161 NAE=    12 NBE=    12 NFC=     3 NFV=     0
 NROrb=    158 NOA=     9 NOB=     9 NVA=   149 NVB=   149

 **** Warning!!: The largest alpha MO coefficient is  0.32270738D+02

 Fully direct method using O(ONN) memory.
 JobTyp=1 Pass  1:  I=   4 to  12 NPSUse=  2 ParTrn=T ParDer=T DoDerP=T.
 Spin components of T(2) and E(2):
     alpha-alpha T2 =       0.2546495867D-01 E2=     -0.8707691709D-01
     alpha-beta  T2 =       0.1333265568D+00 E2=     -0.4897051300D+00
     beta-beta   T2 =       0.2546495867D-01 E2=     -0.8707691709D-01
 ANorm=    0.1088235487D+01
 E2 =    -0.6638589642D+00 EUMP2 =    -0.18890370522620D+03
          IDoAtm=1111
          Differentiating once with respect to electric field.
                with respect to dipole field.
          Differentiating once with respect to nuclear coordinates.
 Keep R1 ints in memory in symmetry-blocked form, NReq=128071153.
          There are     1 degrees of freedom in the 1st order CPHF.  IDoFFX=0 NUNeed=     1.
 LinEq1:  Iter=  0 NonCon=     1 RMS=6.96D-03 Max=1.12D-01 NDo=     1
 AX will form     1 AO Fock derivatives at one time.
 LinEq1:  Iter=  1 NonCon=     1 RMS=1.80D-03 Max=2.22D-02 NDo=     1
 LinEq1:  Iter=  2 NonCon=     1 RMS=6.71D-04 Max=7.58D-03 NDo=     1
 LinEq1:  Iter=  3 NonCon=     1 RMS=2.52D-04 Max=2.89D-03 NDo=     1
 LinEq1:  Iter=  4 NonCon=     1 RMS=7.63D-05 Max=9.50D-04 NDo=     1
 LinEq1:  Iter=  5 NonCon=     1 RMS=1.67D-05 Max=1.87D-04 NDo=     1
 LinEq1:  Iter=  6 NonCon=     1 RMS=3.67D-06 Max=4.74D-05 NDo=     1
 LinEq1:  Iter=  7 NonCon=     1 RMS=7.26D-07 Max=7.22D-06 NDo=     1
 LinEq1:  Iter=  8 NonCon=     1 RMS=1.38D-07 Max=2.21D-06 NDo=     1
 LinEq1:  Iter=  9 NonCon=     1 RMS=2.41D-08 Max=3.46D-07 NDo=     1
 LinEq1:  Iter= 10 NonCon=     1 RMS=3.24D-09 Max=6.21D-08 NDo=     1
 LinEq1:  Iter= 11 NonCon=     1 RMS=5.00D-10 Max=5.94D-09 NDo=     1
 LinEq1:  Iter= 12 NonCon=     1 RMS=1.31D-10 Max=2.04D-09 NDo=     1
 LinEq1:  Iter= 13 NonCon=     0 RMS=6.22D-11 Max=6.31D-10 NDo=     1
 Linear equations converged to 1.000D-10 1.000D-09 after    13 iterations.
 End of Minotr F.D. properties file   721 does not exist.
 End of Minotr F.D. properties file   722 does not exist.
 End of Minotr F.D. properties file   788 does not exist.
 Calling FoFJK, ICntrl=  10002127 FMM=F ISym2X=1 I1Cent= 0 IOpClX= 0 NMat=1 NMatS=1 NMatT=0.
 ***** Axes restored to original set *****
 -------------------------------------------------------------------
 Center     Atomic                   Forces (Hartrees/Bohr)
 Number     Number              X              Y              Z
 -------------------------------------------------------------------
      1        6           0.091443321    0.000000000    0.064023103
      2        8          -0.068142388    0.000000000    0.000027345
      3        8          -0.023274152    0.000000000   -0.064039025
      4        1          -0.000026781    0.000000000   -0.000011423
 -------------------------------------------------------------------
 Cartesian Forces:  Max     0.091443321 RMS     0.042570440
 -----------------------------------------------------------------------------------------------
                       Internal Coordinate Forces (Hartree/Bohr or radian)
  Cent   Atom   N1       Length/X         N2         Alpha/Y        N3         Beta/Z          J
 -----------------------------------------------------------------------------------------------
      1  C 
      2  O        1   0.000027(     1)
      3  O        1   0.000032(     2)      2   0.164761(     4)
      4  H        1   0.000028(     3)      2  -0.000012(     5)      3   0.000000(     6)     0
 -----------------------------------------------------------------------------------------------
 Internal  Forces:  Max     0.164761419 RMS     0.067263571

 GradGradGradGradGradGradGradGradGradGradGradGradGradGradGradGradGradGrad
 Berny optimization.
 Search for a local minimum.
 Step number   4 out of a maximum of   20
 All quantities printed in internal units (Hartrees-Bohrs-Radians)
 Update second derivatives using D2CorN and points    1    2    4
 DE= -2.31D-07 DEPred=-2.20D-07 R= 1.05D+00
 Trust test= 1.05D+00 RLast= 8.65D-04 DXMaxT set to 5.05D-01
 The second derivative matrix:
                          R1        R2        A2        A1
           R1           1.52630
           R2           0.02492   0.28620
           A2          -0.03356   0.00690   0.23081
           A1           0.30481  -0.02615   0.09189   0.66374
 ITU=  0  1  1  0
     Eigenvalues ---    0.22894   0.28671   1.527671000.00000
 RFO step:  Lambda= 0.00000000D+00 EMin= 2.28943531D-01
 Quartic linear search produced a step of  0.01251.
 Variable       Old X    -DE/DX   Delta X   Delta X   Delta X     New X
                                 (Linear)    (Quad)   (Total)
    R1        2.41808   0.00006   0.00001   0.00003   0.00004   2.41812
    R2        2.08094   0.00003  -0.00001   0.00011   0.00010   2.08104
    A2        2.18172  -0.00001   0.00000  -0.00005  -0.00005   2.18166
    A1        1.91986   0.16476   0.00000   0.00000   0.00000   1.91986
         Item               Value     Threshold  Converged?
 Maximum Force            0.000059     0.000450     YES
 RMS     Force            0.000039     0.000300     YES
 Maximum Displacement     0.000099     0.001800     YES
 RMS     Displacement     0.000059     0.001200     YES
 Predicted change in Energy=-2.789635D-09
 Optimization completed.
    -- Stationary point found.
                       ----------------------------
                       !   Optimized Parameters   !
                       ! (Angstroms and Degrees)  !
 ----------------------                            ----------------------
 !      Name          Value   Derivative information (Atomic Units)     !
 ------------------------------------------------------------------------
 !       R1          1.2796   -DE/DX =    0.0001                        !
 !       R2          1.1012   -DE/DX =    0.0                           !
 !       A2        125.0032   -DE/DX =    0.0                           !
 !       A1        110.0      -DE/DX =    0.1648                        !
 ------------------------------------------------------------------------
 GradGradGradGradGradGradGradGradGradGradGradGradGradGradGradGradGradGrad

 ---------------------------------------------------------------------------------------------------
                            Z-MATRIX (ANGSTROMS AND DEGREES)
   CD    Cent   Atom    N1       Length/X        N2       Alpha/Y        N3        Beta/Z          J
 ---------------------------------------------------------------------------------------------------
      1      1  C 
      2      2  O        1   1.279594(     1)
      3      3  O        1   1.279594(     2)      2  110.000(     4)
      4      4  H        1   1.101186(     3)      2  125.003(     5)      3  180.000(     6)      0
 ---------------------------------------------------------------------------------------------------
                         Z-Matrix orientation:                         
 ---------------------------------------------------------------------
 Center     Atomic      Atomic             Coordinates (Angstroms)
 Number     Number       Type             X           Y           Z
 ---------------------------------------------------------------------
      1          6           0        0.000000    0.000000    0.000000
      2          8           0        0.000000    0.000000    1.279594
      3          8           0        1.202425    0.000000   -0.437647
      4          1           0       -0.902003    0.000000   -0.631664
 ---------------------------------------------------------------------
                    Distance matrix (angstroms):
                    1          2          3          4
     1  C    0.000000
     2  O    1.279594   0.000000
     3  O    1.279594   2.096364   0.000000
     4  H    1.101186   2.113414   2.113353   0.000000
 Stoichiometry    CHO2(1-)
 Framework group  CS[SG(CHO2)]
 Deg. of freedom     5
 Full point group                 CS      NOp   2
 Largest Abelian subgroup         CS      NOp   2
 Largest concise Abelian subgroup C1      NOp   1
                         Standard orientation:                         
 ---------------------------------------------------------------------
 Center     Atomic      Atomic             Coordinates (Angstroms)
 Number     Number       Type             X           Y           Z
 ---------------------------------------------------------------------
      1          6           0        0.000000    0.462693    0.000000
      2          8           0       -1.048186   -0.271246    0.000000
      3          8           0        1.048178   -0.271258    0.000000
      4          1           0        0.000067    1.563878    0.000000
 ---------------------------------------------------------------------
 Rotational constants (GHZ):          68.9062990          14.3791049          11.8965732

 **********************************************************************

            Population analysis using the SCF Density.

 **********************************************************************

 Orbital symmetries:
       Occupied  (A') (A') (A') (A') (A') (A') (A') (A') (A") (A')
                 (A') (A")
       Virtual   (A') (A') (A") (A') (A') (A') (A') (A") (A") (A')
                 (A") (A') (A') (A') (A") (A') (A') (A') (A') (A")
                 (A") (A') (A') (A") (A') (A') (A') (A') (A') (A')
                 (A") (A") (A') (A") (A') (A') (A') (A") (A") (A')
                 (A") (A') (A') (A') (A") (A") (A') (A') (A') (A")
                 (A') (A') (A") (A') (A') (A") (A") (A') (A') (A')
                 (A") (A') (A') (A") (A') (A') (A') (A") (A") (A')
                 (A') (A") (A") (A') (A") (A') (A') (A') (A") (A')
                 (A') (A") (A') (A") (A') (A') (A") (A") (A') (A')
                 (A') (A') (A") (A') (A") (A') (A") (A') (A") (A')
                 (A") (A') (A') (A') (A") (A') (A') (A") (A') (A')
                 (A") (A') (A") (A") (A') (A') (A") (A') (A') (A')
                 (A') (A') (A') (A") (A') (A") (A") (A') (A") (A')
                 (A") (A') (A") (A") (A') (A') (A") (A') (A') (A")
                 (A") (A') (A') (A') (A') (A') (A') (A') (A')
 The electronic state is 1-A'.
 Alpha  occ. eigenvalues --  -20.27338 -20.27333 -11.12490  -1.14624  -1.01191
 Alpha  occ. eigenvalues --   -0.58142  -0.42240  -0.35698  -0.32408  -0.21467
 Alpha  occ. eigenvalues --   -0.16451  -0.16045
 Alpha virt. eigenvalues --    0.13861   0.21069   0.21238   0.22025   0.27450
 Alpha virt. eigenvalues --    0.31813   0.33397   0.34667   0.35337   0.35925
 Alpha virt. eigenvalues --    0.40771   0.40863   0.42046   0.44183   0.48134
 Alpha virt. eigenvalues --    0.50310   0.50685   0.54276   0.56565   0.58781
 Alpha virt. eigenvalues --    0.63640   0.68375   0.68682   0.72580   0.78354
 Alpha virt. eigenvalues --    0.78668   0.89987   0.90780   0.95128   0.95900
 Alpha virt. eigenvalues --    0.99968   1.02182   1.04928   1.08393   1.09066
 Alpha virt. eigenvalues --    1.10704   1.10965   1.11413   1.12608   1.12710
 Alpha virt. eigenvalues --    1.17350   1.18491   1.23360   1.24870   1.28095
 Alpha virt. eigenvalues --    1.31615   1.34030   1.38560   1.43928   1.45521
 Alpha virt. eigenvalues --    1.51865   1.54581   1.58625   1.60494   1.66086
 Alpha virt. eigenvalues --    1.70123   1.70267   1.76925   1.80280   1.86496
 Alpha virt. eigenvalues --    1.91654   1.95546   2.06111   2.10084   2.23980
 Alpha virt. eigenvalues --    2.36422   2.39795   2.41325   2.50185   2.52039
 Alpha virt. eigenvalues --    2.56758   2.57661   2.62484   2.66727   2.67134
 Alpha virt. eigenvalues --    2.68414   2.70716   2.75429   2.77959   2.81844
 Alpha virt. eigenvalues --    2.85816   2.90437   2.90822   2.99995   3.01481
 Alpha virt. eigenvalues --    3.02698   3.05976   3.13752   3.18242   3.21874
 Alpha virt. eigenvalues --    3.40627   3.43524   3.44357   3.53943   3.57828
 Alpha virt. eigenvalues --    3.72878   3.74508   3.79113   4.09131   4.10823
 Alpha virt. eigenvalues --    4.18678   4.25194   4.25552   4.28750   4.29183
 Alpha virt. eigenvalues --    4.38766   4.39316   4.52872   4.66512   4.86055
 Alpha virt. eigenvalues --    4.87417   5.15129   5.16921   5.29928   5.31058
 Alpha virt. eigenvalues --    5.35194   5.44930   5.52528   5.89966   6.15609
 Alpha virt. eigenvalues --    6.45282   6.57933   6.84955   6.85775   6.90265
 Alpha virt. eigenvalues --    6.90628   7.06807   7.08891   7.14088   7.18284
 Alpha virt. eigenvalues --    7.22731   7.36265   7.38667   7.41408   7.47112
 Alpha virt. eigenvalues --    7.54973   7.56471   7.61361   7.66115   7.80567
 Alpha virt. eigenvalues --    7.81712   7.91763   8.00186   8.00561   8.04127
 Alpha virt. eigenvalues --    8.19272  14.02336  14.26335  16.27910
          Condensed to atoms (all electrons):
               1          2          3          4
     1  C    4.901210   0.448312   0.448307   0.245590
     2  O    0.448312   8.486167  -0.176608  -0.034301
     3  O    0.448307  -0.176608   8.486175  -0.034299
     4  H    0.245590  -0.034301  -0.034299   0.332442
 Mulliken charges:
               1
     1  C   -0.043420
     2  O   -0.723571
     3  O   -0.723576
     4  H    0.490567
 Sum of Mulliken charges =  -1.00000
 Mulliken charges with hydrogens summed into heavy atoms:
               1
     1  C    0.447147
     2  O   -0.723571
     3  O   -0.723576
 Electronic spatial extent (au):  <R**2>=            130.5171
 Charge=             -1.0000 electrons
 Dipole moment (field-independent basis, Debye):
    X=              0.0000    Y=              2.8842    Z=              0.0000  Tot=              2.8842
 Quadrupole moment (field-independent basis, Debye-Ang):
   XX=            -29.6132   YY=            -18.8769   ZZ=            -19.0530
   XY=              0.0002   XZ=              0.0000   YZ=              0.0000
 Traceless Quadrupole moment (field-independent basis, Debye-Ang):
   XX=             -7.0988   YY=              3.6375   ZZ=              3.4614
   XY=              0.0002   XZ=              0.0000   YZ=              0.0000
 Octapole moment (field-independent basis, Debye-Ang**2):
  XXX=              0.0000  YYY=              0.8166  ZZZ=              0.0000  XYY=              0.0001
  XXY=              0.6453  XXZ=              0.0000  XZZ=              0.0000  YZZ=             -0.0878
  YYZ=              0.0000  XYZ=              0.0000
 Hexadecapole moment (field-independent basis, Debye-Ang**3):
 XXXX=           -128.9201 YYYY=            -43.8554 ZZZZ=            -20.3092 XXXY=              0.0001
 XXXZ=              0.0000 YYYX=              0.0003 YYYZ=              0.0000 ZZZX=              0.0000
 ZZZY=              0.0000 XXYY=            -26.4979 XXZZ=            -23.4549 YYZZ=            -10.8960
 XXYZ=              0.0000 YYXZ=              0.0000 ZZXY=              0.0000
 N-N= 6.274576792723D+01 E-N=-5.777757398527D+02  KE= 1.879130332856D+02
 Symmetry A'   KE= 1.803233112455D+02
 Symmetry A"   KE= 7.589722040128D+00
 1|1|UNPC-DESKTOP-F4NP0R6|POpt|RMP2-FC|Aug-CC-pVTZ|C1H1O2(1-)|GARRETT|2
 3-Jul-2018|1||# MP2 Aug-cc-pvTZ opt=(noeigen,calcfc,z-matrix)||Formate
 ||-1,1|C|O,1,R1|O,1,R1,2,A1|H,1,R2,2,A2,3,180.,0||R1=1.279594|R2=1.101
 18551|A2=125.00317956|A1=110.||Version=EM64W-G16RevB.01|State=1-A'|HF=
 -188.2398463|MP2=-188.9037052|RMSD=2.971e-009|RMSF=4.257e-002|Dipole=-
 0.7041276,0.,-0.4930418|PG=CS [SG(C1H1O2)]||@


 MISERY NO LONGER LOVES COMPANY.  NOWADAYS IT INSISTS ON IT.

                                              -- BAKER'S LAW
 Job cpu time:       0 days  0 hours 48 minutes 34.0 seconds.
 Elapsed time:       0 days  0 hours 48 minutes  3.3 seconds.
 File lengths (MBytes):  RWF=   2790 Int=      0 D2E=      0 Chk=      4 Scr=      1
 Normal termination of Gaussian 16 at Mon Jul 23 23:06:52 2018.
