 Entering Link 1 = C:\G16W\l1.exe PID=     21452.
  
 Copyright (c) 1988-2017, Gaussian, Inc.  All Rights Reserved.
  
 This is part of the Gaussian(R) 16 program.  It is based on
 the Gaussian(R) 09 system (copyright 2009, Gaussian, Inc.),
 the Gaussian(R) 03 system (copyright 2003, Gaussian, Inc.),
 the Gaussian(R) 98 system (copyright 1998, Gaussian, Inc.),
 the Gaussian(R) 94 system (copyright 1995, Gaussian, Inc.),
 the Gaussian 92(TM) system (copyright 1992, Gaussian, Inc.),
 the Gaussian 90(TM) system (copyright 1990, Gaussian, Inc.),
 the Gaussian 88(TM) system (copyright 1988, Gaussian, Inc.),
 the Gaussian 86(TM) system (copyright 1986, Carnegie Mellon
 University), and the Gaussian 82(TM) system (copyright 1983,
 Carnegie Mellon University). Gaussian is a federally registered
 trademark of Gaussian, Inc.
  
 This software contains proprietary and confidential information,
 including trade secrets, belonging to Gaussian, Inc.
  
 This software is provided under written license and may be
 used, copied, transmitted, or stored only in accord with that
 written license.
  
 The following legend is applicable only to US Government
 contracts under FAR:
  
                    RESTRICTED RIGHTS LEGEND
  
 Use, reproduction and disclosure by the US Government is
 subject to restrictions as set forth in subparagraphs (a)
 and (c) of the Commercial Computer Software - Restricted
 Rights clause in FAR 52.227-19.
  
 Gaussian, Inc.
 340 Quinnipiac St., Bldg. 40, Wallingford CT 06492
  
  
 ---------------------------------------------------------------
 Warning -- This program may not be used in any manner that
 competes with the business of Gaussian, Inc. or will provide
 assistance to any competitor of Gaussian, Inc.  The licensee
 of this program is prohibited from giving any competitor of
 Gaussian, Inc. access to this program.  By using this program,
 the user acknowledges that Gaussian, Inc. is engaged in the
 business of creating and licensing software in the field of
 computational chemistry and represents and warrants to the
 licensee that it is not a competitor of Gaussian, Inc. and that
 it will not use this program in any manner prohibited above.
 ---------------------------------------------------------------
  

 Cite this work as:
 Gaussian 16, Revision B.01,
 M. J. Frisch, G. W. Trucks, H. B. Schlegel, G. E. Scuseria, 
 M. A. Robb, J. R. Cheeseman, G. Scalmani, V. Barone, 
 G. A. Petersson, H. Nakatsuji, X. Li, M. Caricato, A. V. Marenich, 
 J. Bloino, B. G. Janesko, R. Gomperts, B. Mennucci, H. P. Hratchian, 
 J. V. Ortiz, A. F. Izmaylov, J. L. Sonnenberg, D. Williams-Young, 
 F. Ding, F. Lipparini, F. Egidi, J. Goings, B. Peng, A. Petrone, 
 T. Henderson, D. Ranasinghe, V. G. Zakrzewski, J. Gao, N. Rega, 
 G. Zheng, W. Liang, M. Hada, M. Ehara, K. Toyota, R. Fukuda, 
 J. Hasegawa, M. Ishida, T. Nakajima, Y. Honda, O. Kitao, H. Nakai, 
 T. Vreven, K. Throssell, J. A. Montgomery, Jr., J. E. Peralta, 
 F. Ogliaro, M. J. Bearpark, J. J. Heyd, E. N. Brothers, K. N. Kudin, 
 V. N. Staroverov, T. A. Keith, R. Kobayashi, J. Normand, 
 K. Raghavachari, A. P. Rendell, J. C. Burant, S. S. Iyengar, 
 J. Tomasi, M. Cossi, J. M. Millam, M. Klene, C. Adamo, R. Cammi, 
 J. W. Ochterski, R. L. Martin, K. Morokuma, O. Farkas, 
 J. B. Foresman, and D. J. Fox, Gaussian, Inc., Wallingford CT, 2016.
 
 ******************************************
 Gaussian 16:  EM64W-G16RevB.01 16-Dec-2017
                24-Jul-2018 
 ******************************************
 %nproc=2
 Will use up to    2 processors via shared memory.
 %mem=4gb
 ----------------------------
 # MP2 Aug-cc-pvTZ pop=ChelpG
 ----------------------------
 1/38=1,172=1/1;
 2/12=2,17=6,18=5,40=1/2;
 3/5=16,6=1,7=10,11=9,25=1,30=1/1,2,3;
 4//1;
 5/5=2,38=5/2;
 8/10=1/1;
 9/16=-3/6;
 6/7=2,8=2,9=2,10=2,15=8,20=3/1,2;
 99/5=1,9=1/99;
 -------
 Formate
 -------
 Symbolic Z-matrix:
 Charge = -1 Multiplicity = 1
 C
 O                    1    R1
 O                    1    R1       2    A1
 H                    1    R2       2    A2       3     180.     0
       Variables:
  R1                    1.25827                  
  R2                    1.12525                  
  A1                  130.18115                  
  A2                  114.9094                   
 
                          Input orientation:                          
 ---------------------------------------------------------------------
 Center     Atomic      Atomic             Coordinates (Angstroms)
 Number     Number       Type             X           Y           Z
 ---------------------------------------------------------------------
      1          6           0        0.000000    0.000000    0.000000
      2          8           0        0.000000    0.000000    1.258269
      3          8           0        0.961328    0.000000   -0.811843
      4          1           0       -1.020575    0.000000   -0.473938
 ---------------------------------------------------------------------
                    Distance matrix (angstroms):
                    1          2          3          4
     1  C    0.000000
     2  O    1.258269   0.000000
     3  O    1.258269   2.282437   0.000000
     4  H    1.125251   2.010502   2.010502   0.000000
 Stoichiometry    CHO2(1-)
 Framework group  CS[SG(CHO2)]
 Deg. of freedom     5
 Full point group                 CS      NOp   2
 Largest Abelian subgroup         CS      NOp   2
 Largest concise Abelian subgroup C1      NOp   1
                         Standard orientation:                         
 ---------------------------------------------------------------------
 Center     Atomic      Atomic             Coordinates (Angstroms)
 Number     Number       Type             X           Y           Z
 ---------------------------------------------------------------------
      1          6           0        0.000000    0.319747    0.000000
      2          8           0       -1.141219   -0.210218    0.000000
      3          8           0        1.141219   -0.210217    0.000000
      4          1           0       -0.000001    1.444998    0.000000
 ---------------------------------------------------------------------
 Rotational constants (GHZ):         107.5424210          12.1301890          10.9006555
 Standard basis: Aug-CC-pVTZ (5D, 7F)
 There are   129 symmetry adapted cartesian basis functions of A'  symmetry.
 There are    61 symmetry adapted cartesian basis functions of A"  symmetry.
 There are   106 symmetry adapted basis functions of A'  symmetry.
 There are    55 symmetry adapted basis functions of A"  symmetry.
   161 basis functions,   243 primitive gaussians,   190 cartesian basis functions
    12 alpha electrons       12 beta electrons
       nuclear repulsion energy        62.2449018677 Hartrees.
 NAtoms=    4 NActive=    4 NUniq=    4 SFac= 1.00D+00 NAtFMM=   60 NAOKFM=F Big=F
 Integral buffers will be    131072 words long.
 Raffenetti 1 integral format.
 Two-electron integral symmetry is turned on.
 One-electron integrals computed using PRISM.
 NBasis=   161 RedAO= T EigKep=  9.89D-05  NBF=   106    55
 NBsUse=   161 1.00D-06 EigRej= -1.00D+00 NBFU=   106    55
 ExpMin= 2.53D-02 ExpMax= 1.53D+04 ExpMxC= 5.22D+02 IAcc=3 IRadAn=         5 AccDes= 0.00D+00
 Harris functional with IExCor=  205 and IRadAn=       5 diagonalized for initial guess.
 HarFok:  IExCor=  205 AccDes= 0.00D+00 IRadAn=         5 IDoV= 1 UseB2=F ITyADJ=14
 ICtDFT=  3500011 ScaDFX=  1.000000  1.000000  1.000000  1.000000
 FoFCou: FMM=F IPFlag=           0 FMFlag=      100000 FMFlg1=           0
         NFxFlg=           0 DoJE=T BraDBF=F KetDBF=T FulRan=T
         wScrn=  0.000000 ICntrl=       500 IOpCl=  0 I1Cent=   200000004 NGrid=           0
         NMat0=    1 NMatS0=      1 NMatT0=    0 NMatD0=    1 NMtDS0=    0 NMtDT0=    0
 Petite list used in FoFCou.
 Initial guess orbital symmetries:
       Occupied  (A') (A') (A') (A') (A') (A') (A') (A') (A") (A")
                 (A') (A')
       Virtual   (A") (A') (A') (A') (A") (A') (A') (A') (A') (A")
                 (A") (A') (A') (A') (A") (A') (A') (A') (A") (A')
                 (A') (A") (A') (A') (A") (A') (A') (A') (A') (A")
                 (A') (A') (A") (A") (A') (A") (A") (A') (A') (A')
                 (A') (A') (A") (A") (A') (A") (A') (A') (A') (A")
                 (A') (A') (A") (A') (A') (A") (A") (A') (A') (A")
                 (A') (A') (A') (A") (A') (A') (A') (A") (A') (A")
                 (A") (A") (A') (A") (A') (A') (A') (A') (A") (A')
                 (A') (A') (A") (A") (A') (A') (A') (A") (A") (A')
                 (A') (A') (A") (A") (A') (A') (A') (A") (A") (A')
                 (A") (A') (A") (A') (A') (A') (A') (A") (A') (A')
                 (A") (A') (A") (A') (A") (A') (A") (A') (A') (A')
                 (A') (A') (A") (A') (A') (A") (A') (A") (A") (A')
                 (A') (A") (A") (A') (A') (A") (A") (A') (A") (A')
                 (A") (A') (A') (A') (A') (A') (A') (A') (A')
 The electronic state of the initial guess is 1-A'.
 Keep R1 ints in memory in symmetry-blocked form, NReq=128070129.
 Requested convergence on RMS density matrix=1.00D-08 within 128 cycles.
 Requested convergence on MAX density matrix=1.00D-06.
 Requested convergence on             energy=1.00D-06.
 No special actions if energy rises.
 SCF Done:  E(RHF) =  -188.273418259     A.U. after   11 cycles
            NFock= 11  Conv=0.73D-08     -V/T= 2.0017
 ExpMin= 2.53D-02 ExpMax= 1.53D+04 ExpMxC= 5.22D+02 IAcc=3 IRadAn=         5 AccDes= 0.00D+00
 HarFok:  IExCor=  205 AccDes= 0.00D+00 IRadAn=         5 IDoV=-2 UseB2=F ITyADJ=14
 ICtDFT= 12500011 ScaDFX=  1.000000  1.000000  1.000000  1.000000
 Range of M.O.s used for correlation:     4   161
 NBasis=   161 NAE=    12 NBE=    12 NFC=     3 NFV=     0
 NROrb=    158 NOA=     9 NOB=     9 NVA=   149 NVB=   149

 **** Warning!!: The largest alpha MO coefficient is  0.32536754D+02

 Fully in-core method, ICMem=   353742015.
 JobTyp=1 Pass  1 fully in-core, NPsUse=  2.
 Spin components of T(2) and E(2):
     alpha-alpha T2 =       0.2472358329D-01 E2=     -0.8616659295D-01
     alpha-beta  T2 =       0.1295670963D+00 E2=     -0.4854641432D+00
     beta-beta   T2 =       0.2472358329D-01 E2=     -0.8616659295D-01
 ANorm=    0.1085824232D+01
 E2 =    -0.6577973291D+00 EUMP2 =    -0.18893121558760D+03

 **********************************************************************

            Population analysis using the SCF Density.

 **********************************************************************

 Orbital symmetries:
       Occupied  (A') (A') (A') (A') (A') (A') (A') (A') (A") (A')
                 (A') (A")
       Virtual   (A') (A') (A") (A') (A') (A') (A') (A") (A") (A')
                 (A') (A') (A") (A') (A") (A') (A') (A') (A') (A")
                 (A") (A') (A') (A") (A') (A') (A') (A') (A') (A")
                 (A') (A') (A") (A') (A") (A") (A') (A') (A") (A')
                 (A') (A") (A') (A') (A") (A') (A") (A') (A') (A")
                 (A') (A") (A') (A') (A') (A") (A") (A') (A') (A")
                 (A') (A') (A') (A") (A') (A') (A") (A') (A') (A")
                 (A") (A") (A') (A") (A') (A') (A') (A') (A") (A')
                 (A') (A') (A") (A") (A') (A') (A') (A") (A") (A')
                 (A') (A') (A") (A") (A') (A') (A") (A') (A") (A')
                 (A') (A") (A') (A") (A') (A') (A') (A") (A') (A')
                 (A") (A') (A') (A") (A") (A") (A') (A') (A') (A')
                 (A') (A') (A") (A') (A') (A") (A') (A") (A") (A')
                 (A') (A") (A") (A') (A") (A') (A') (A") (A') (A")
                 (A") (A') (A') (A') (A') (A') (A') (A') (A')
 The electronic state is 1-A'.
 Alpha  occ. eigenvalues --  -20.28904 -20.28901 -11.12516  -1.15365  -1.05879
 Alpha  occ. eigenvalues --   -0.55699  -0.42820  -0.38618  -0.33951  -0.20871
 Alpha  occ. eigenvalues --   -0.18964  -0.18657
 Alpha virt. eigenvalues --    0.14384   0.21299   0.21403   0.21703   0.28057
 Alpha virt. eigenvalues --    0.31802   0.32769   0.33885   0.36460   0.37013
 Alpha virt. eigenvalues --    0.39210   0.41836   0.42147   0.45696   0.49175
 Alpha virt. eigenvalues --    0.50049   0.51607   0.54148   0.58142   0.59209
 Alpha virt. eigenvalues --    0.61871   0.69783   0.70035   0.72303   0.77676
 Alpha virt. eigenvalues --    0.82272   0.86752   0.92000   0.93216   0.96319
 Alpha virt. eigenvalues --    1.01012   1.01266   1.05316   1.05355   1.06427
 Alpha virt. eigenvalues --    1.09655   1.12069   1.12312   1.13221   1.15763
 Alpha virt. eigenvalues --    1.21483   1.21920   1.22458   1.26024   1.26270
 Alpha virt. eigenvalues --    1.27885   1.32097   1.38666   1.42981   1.44160
 Alpha virt. eigenvalues --    1.45364   1.55877   1.57402   1.63792   1.65335
 Alpha virt. eigenvalues --    1.71044   1.76980   1.77822   1.81437   1.87725
 Alpha virt. eigenvalues --    1.92556   1.99799   2.07800   2.13668   2.22983
 Alpha virt. eigenvalues --    2.23251   2.41374   2.41573   2.45066   2.50434
 Alpha virt. eigenvalues --    2.57938   2.61431   2.64161   2.64178   2.64724
 Alpha virt. eigenvalues --    2.70077   2.72603   2.73589   2.81591   2.81798
 Alpha virt. eigenvalues --    2.86008   2.88411   2.89073   2.90357   2.98172
 Alpha virt. eigenvalues --    3.09400   3.12678   3.14942   3.15706   3.28024
 Alpha virt. eigenvalues --    3.30121   3.41128   3.43423   3.56114   3.64118
 Alpha virt. eigenvalues --    3.79535   3.79977   3.80291   4.04755   4.11311
 Alpha virt. eigenvalues --    4.20889   4.26858   4.27432   4.30462   4.30551
 Alpha virt. eigenvalues --    4.46966   4.53076   4.54588   4.74661   4.81271
 Alpha virt. eigenvalues --    4.87083   5.21080   5.21190   5.26643   5.27727
 Alpha virt. eigenvalues --    5.39592   5.45048   5.45689   5.81655   6.10926
 Alpha virt. eigenvalues --    6.53609   6.55886   6.84535   6.85735   6.87118
 Alpha virt. eigenvalues --    6.87498   7.07275   7.09320   7.10627   7.19678
 Alpha virt. eigenvalues --    7.29977   7.30811   7.38225   7.43670   7.43879
 Alpha virt. eigenvalues --    7.48336   7.53444   7.54785   7.77533   7.79140
 Alpha virt. eigenvalues --    7.85133   7.86637   7.94978   8.01821   8.18187
 Alpha virt. eigenvalues --    8.21814  13.59963  15.28688  16.61262
          Condensed to atoms (all electrons):
               1          2          3          4
     1  C    4.881801   0.418111   0.418111   0.281239
     2  O    0.418111   8.424983  -0.111485  -0.040640
     3  O    0.418111  -0.111485   8.424983  -0.040640
     4  H    0.281239  -0.040640  -0.040640   0.418841
 Mulliken charges:
               1
     1  C    0.000737
     2  O   -0.690969
     3  O   -0.690969
     4  H    0.381200
 Sum of Mulliken charges =  -1.00000
 Mulliken charges with hydrogens summed into heavy atoms:
               1
     1  C    0.381937
     2  O   -0.690969
     3  O   -0.690969
 Electronic spatial extent (au):  <R**2>=            137.7263
 Charge=             -1.0000 electrons
 Dipole moment (field-independent basis, Debye):
    X=              0.0000    Y=              1.8731    Z=              0.0000  Tot=              1.8731
 Quadrupole moment (field-independent basis, Debye-Ang):
   XX=            -29.7585   YY=            -20.1171   ZZ=            -18.9097
   XY=              0.0000   XZ=              0.0000   YZ=              0.0000
 Traceless Quadrupole moment (field-independent basis, Debye-Ang):
   XX=             -6.8301   YY=              2.8113   ZZ=              4.0187
   XY=              0.0000   XZ=              0.0000   YZ=              0.0000
 Octapole moment (field-independent basis, Debye-Ang**2):
  XXX=              0.0000  YYY=             -0.8674  ZZZ=              0.0000  XYY=              0.0000
  XXY=              0.9685  XXZ=              0.0000  XZZ=              0.0000  YZZ=             -0.2242
  YYZ=              0.0000  XYZ=              0.0000
 Hexadecapole moment (field-independent basis, Debye-Ang**3):
 XXXX=           -138.7653 YYYY=            -42.5860 ZZZZ=            -19.7908 XXXY=              0.0000
 XXXZ=              0.0000 YYYX=              0.0000 YYYZ=              0.0000 ZZZX=              0.0000
 ZZZY=              0.0000 XXYY=            -28.3615 XXZZ=            -24.9977 YYZZ=            -10.2340
 XXYZ=              0.0000 YYXZ=              0.0000 ZZXY=              0.0000
 N-N= 6.224490186765D+01 E-N=-5.765594712316D+02  KE= 1.879457215922D+02
 Symmetry A'   KE= 1.803256549456D+02
 Symmetry A"   KE= 7.620066646614D+00
 Breneman (CHELPG) radii used.
 Generate Potential Derived Charges using the Breneman model, NDens= 1.
 Grid spacing= 0.300 Box extension= 2.800
 NStep X,Y,Z=   28     26     20   Total possible points=       14560
 Number of Points to Fit=    4784

 **********************************************************************

            Electrostatic Properties Using The SCF Density.

 **********************************************************************

       Atomic Center    1 is at   0.000000  0.319747  0.000000
       Atomic Center    2 is at  -1.141219 -0.210218  0.000000
       Atomic Center    3 is at   1.141219 -0.210217  0.000000
       Atomic Center    4 is at  -0.000001  1.444998  0.000000
    4784 points will be used for fitting atomic charges
 Fitting point charges to electrostatic potential
 Charges from ESP fit, RMS=   0.00347 RRMS=   0.01935:
 ESP charges:
               1
     1  C    0.961937
     2  O   -0.883006
     3  O   -0.883006
     4  H   -0.195926
 Sum of ESP charges =  -1.00000
 ESP charges with hydrogens summed into heavy atoms:
               1
     1  C    0.766011
     2  O   -0.883006
     3  O   -0.883006
 Charge=  -1.00000 Dipole=     0.0000     1.9007     0.0000 Tot=     1.9007
 -----------------------------------------------------------------

              Electrostatic Properties (Atomic Units)

 -----------------------------------------------------------------
    Center     Electric         -------- Electric Field --------
               Potential          X             Y             Z
 -----------------------------------------------------------------
    1 Atom    -14.837728
    2 Atom    -22.607174
    3 Atom    -22.607174
    4 Atom     -1.328493
 -----------------------------------------------------------------
 1|1|UNPC-DESKTOP-F4NP0R6|SP|RMP2-FC|Aug-CC-pVTZ|C1H1O2(1-)|GARRETT|24-
 Jul-2018|0||# MP2 Aug-cc-pvTZ pop=ChelpG||Formate||-1,1|C|O,1,1.258269
 49|O,1,1.25826949,2,130.18114751|H,1,1.12525117,2,114.90939537,3,180.,
 0||Version=EM64W-G16RevB.01|State=1-A'|HF=-188.2734183|MP2=-188.931215
 6|RMSD=7.293e-009|PG=CS [SG(C1H1O2)]||@


 TERENCE, THIS IS STUPID STUFF:
 YOU EAT YOUR VICTUALS FAST ENOUGH;
 THERE CAN'T BE MUCH AMISS, 'TIS CLEAR
 TO SEE THE RATE YOU DRINK YOUR BEER.
 BUT OH, GOOD LORD, THE VERSE YOU MAKE,
 IT GIVES A CHAP THE BELLY-ACHE.
 THE COW, THE OLD COW, SHE IS DEAD;
 IT SLEEPS WELL, THE HORNED HEAD:
 WE POOR LADS, 'TIS OUR TURN NOW
 TO HEAR SUCH TUNES AS KILLED THE COW.
 PRETTY FRIENDSHIP 'TIS TO RHYME
 YOUR FRIENDS TO DEATH BEFORE THEIR TIME.
 MOPING, MELANCHOLY MAD:
 COME PIPE A TUNE TO DANCE TO, LAD.

     -- A. E. HOUSMAN
 Job cpu time:       0 days  0 hours  0 minutes 31.0 seconds.
 Elapsed time:       0 days  0 hours  0 minutes 26.1 seconds.
 File lengths (MBytes):  RWF=     16 Int=      0 D2E=      0 Chk=      3 Scr=      1
 Normal termination of Gaussian 16 at Tue Jul 24 13:30:27 2018.
