 Entering Link 1 = C:\G16W\l1.exe PID=     22784.
  
 Copyright (c) 1988-2017, Gaussian, Inc.  All Rights Reserved.
  
 This is part of the Gaussian(R) 16 program.  It is based on
 the Gaussian(R) 09 system (copyright 2009, Gaussian, Inc.),
 the Gaussian(R) 03 system (copyright 2003, Gaussian, Inc.),
 the Gaussian(R) 98 system (copyright 1998, Gaussian, Inc.),
 the Gaussian(R) 94 system (copyright 1995, Gaussian, Inc.),
 the Gaussian 92(TM) system (copyright 1992, Gaussian, Inc.),
 the Gaussian 90(TM) system (copyright 1990, Gaussian, Inc.),
 the Gaussian 88(TM) system (copyright 1988, Gaussian, Inc.),
 the Gaussian 86(TM) system (copyright 1986, Carnegie Mellon
 University), and the Gaussian 82(TM) system (copyright 1983,
 Carnegie Mellon University). Gaussian is a federally registered
 trademark of Gaussian, Inc.
  
 This software contains proprietary and confidential information,
 including trade secrets, belonging to Gaussian, Inc.
  
 This software is provided under written license and may be
 used, copied, transmitted, or stored only in accord with that
 written license.
  
 The following legend is applicable only to US Government
 contracts under FAR:
  
                    RESTRICTED RIGHTS LEGEND
  
 Use, reproduction and disclosure by the US Government is
 subject to restrictions as set forth in subparagraphs (a)
 and (c) of the Commercial Computer Software - Restricted
 Rights clause in FAR 52.227-19.
  
 Gaussian, Inc.
 340 Quinnipiac St., Bldg. 40, Wallingford CT 06492
  
  
 ---------------------------------------------------------------
 Warning -- This program may not be used in any manner that
 competes with the business of Gaussian, Inc. or will provide
 assistance to any competitor of Gaussian, Inc.  The licensee
 of this program is prohibited from giving any competitor of
 Gaussian, Inc. access to this program.  By using this program,
 the user acknowledges that Gaussian, Inc. is engaged in the
 business of creating and licensing software in the field of
 computational chemistry and represents and warrants to the
 licensee that it is not a competitor of Gaussian, Inc. and that
 it will not use this program in any manner prohibited above.
 ---------------------------------------------------------------
  

 Cite this work as:
 Gaussian 16, Revision B.01,
 M. J. Frisch, G. W. Trucks, H. B. Schlegel, G. E. Scuseria, 
 M. A. Robb, J. R. Cheeseman, G. Scalmani, V. Barone, 
 G. A. Petersson, H. Nakatsuji, X. Li, M. Caricato, A. V. Marenich, 
 J. Bloino, B. G. Janesko, R. Gomperts, B. Mennucci, H. P. Hratchian, 
 J. V. Ortiz, A. F. Izmaylov, J. L. Sonnenberg, D. Williams-Young, 
 F. Ding, F. Lipparini, F. Egidi, J. Goings, B. Peng, A. Petrone, 
 T. Henderson, D. Ranasinghe, V. G. Zakrzewski, J. Gao, N. Rega, 
 G. Zheng, W. Liang, M. Hada, M. Ehara, K. Toyota, R. Fukuda, 
 J. Hasegawa, M. Ishida, T. Nakajima, Y. Honda, O. Kitao, H. Nakai, 
 T. Vreven, K. Throssell, J. A. Montgomery, Jr., J. E. Peralta, 
 F. Ogliaro, M. J. Bearpark, J. J. Heyd, E. N. Brothers, K. N. Kudin, 
 V. N. Staroverov, T. A. Keith, R. Kobayashi, J. Normand, 
 K. Raghavachari, A. P. Rendell, J. C. Burant, S. S. Iyengar, 
 J. Tomasi, M. Cossi, J. M. Millam, M. Klene, C. Adamo, R. Cammi, 
 J. W. Ochterski, R. L. Martin, K. Morokuma, O. Farkas, 
 J. B. Foresman, and D. J. Fox, Gaussian, Inc., Wallingford CT, 2016.
 
 ******************************************
 Gaussian 16:  EM64W-G16RevB.01 16-Dec-2017
                22-Jul-2018 
 ******************************************
 %nproc=2
 Will use up to    2 processors via shared memory.
 %mem=4gb
 %chk=Formate.chk
 ----------------------------------------------------
 # MP2 Aug-cc-pvTZ opt=(noeigen,calcfc,z-matrix) freq
 ----------------------------------------------------
 1/10=4,11=1,18=40,38=1/1,3;
 2/12=2,17=6,18=5,29=3,40=1/2;
 3/5=16,6=1,7=10,11=9,25=1,30=1,71=2,140=1/1,2,3;
 4//1;
 5/5=2,38=5/2;
 8/6=3,8=1,10=1,19=11,30=-1/1;
 9/15=3,16=-3/6;
 11/6=1,8=1,15=11,17=12,24=-1,27=1,28=-2,29=300,32=6,42=3/1,2,10;
 10/6=2,21=1/2;
 8/6=4,8=1,10=1,19=11,30=-1/11,4;
 10/5=1,20=4/2;
 11/12=2,14=11,16=1,17=2,28=-2,42=3,76=2/2,10,12;
 6/7=2,8=2,9=2,10=2/1;
 7/10=1,12=2,25=1,44=2/1,2,3,16;
 1/10=4,11=1,18=40/3(2);
 2/29=3/2;
 99//99;
 2/29=3/2;
 3/5=16,6=1,7=10,11=9,25=1,30=1,71=1/1,2,3;
 4/5=5,16=3,69=1/1;
 5/5=2,38=5/2;
 8/6=4,10=1/1;
 9/15=2,16=-3/6;
 10/5=1/2;
 7/12=2/1,2,3,16;
 1/11=1,18=40/3(-8);
 2/29=3/2;
 6/7=2,8=2,9=2,10=2/1;
 99/9=10/99;
 -------
 Formate
 -------
 Symbolic Z-matrix:
 Charge = -1 Multiplicity = 1
 C
 O                    1    R1
 O                    1    R1       2    A1
 H                    1    R2       2    A2       3     180.     0
       Variables:
  R1                    1.25802                  
  R2                    1.14172                  
  A1                  130.22624                  
  A2                  114.8879                   
 

 GradGradGradGradGradGradGradGradGradGradGradGradGradGradGradGradGradGrad
 Berny optimization.
 Initialization pass.
                       ----------------------------
                       !    Initial Parameters    !
                       ! (Angstroms and Degrees)  !
 ----------------------                            ----------------------
 !      Name          Value   Derivative information (Atomic Units)     !
 ------------------------------------------------------------------------
 !       R1          1.258    calculate D2E/DX2 analytically            !
 !       R2          1.1417   calculate D2E/DX2 analytically            !
 !       A1        130.2262   calculate D2E/DX2 analytically            !
 !       A2        114.8879   calculate D2E/DX2 analytically            !
 ------------------------------------------------------------------------
 Trust Radius=3.00D-01 FncErr=1.00D-07 GrdErr=1.00D-07 EigMax=2.50D+02 EigMin=1.00D-04
 Number of steps in this run=     20 maximum allowed number of steps=    100.
 GradGradGradGradGradGradGradGradGradGradGradGradGradGradGradGradGradGrad

 ---------------------------------------------------------------------------------------------------
                            Z-MATRIX (ANGSTROMS AND DEGREES)
   CD    Cent   Atom    N1       Length/X        N2       Alpha/Y        N3        Beta/Z          J
 ---------------------------------------------------------------------------------------------------
      1      1  C 
      2      2  O        1   1.258020(     1)
      3      3  O        1   1.258020(     2)      2  130.226(     4)
      4      4  H        1   1.141723(     3)      2  114.888(     5)      3  180.000(     6)      0
 ---------------------------------------------------------------------------------------------------
                         Z-Matrix orientation:                         
 ---------------------------------------------------------------------
 Center     Atomic      Atomic             Coordinates (Angstroms)
 Number     Number       Type             X           Y           Z
 ---------------------------------------------------------------------
      1          6           0        0.000000    0.000000    0.000000
      2          8           0        0.000000    0.000000    1.258020
      3          8           0        0.960499    0.000000   -0.812439
      4          1           0       -1.035694    0.000000   -0.480487
 ---------------------------------------------------------------------
                    Distance matrix (angstroms):
                    1          2          3          4
     1  C    0.000000
     2  O    1.258020   0.000000
     3  O    1.258020   2.282402   0.000000
     4  H    1.141723   2.023628   2.023605   0.000000
 Stoichiometry    CHO2(1-)
 Framework group  CS[SG(CHO2)]
 Deg. of freedom     5
 Full point group                 CS      NOp   2
 Largest Abelian subgroup         CS      NOp   2
 Largest concise Abelian subgroup C1      NOp   1
                         Standard orientation:                         
 ---------------------------------------------------------------------
 Center     Atomic      Atomic             Coordinates (Angstroms)
 Number     Number       Type             X           Y           Z
 ---------------------------------------------------------------------
      1          6           0        0.000000    0.318645    0.000000
      2          8           0        1.141202   -0.210762    0.000000
      3          8           0       -1.141200   -0.210768    0.000000
      4          1           0       -0.000024    1.460368    0.000000
 ---------------------------------------------------------------------
 Rotational constants (GHZ):         106.5680885          12.1305637          10.8908649
 Standard basis: Aug-CC-pVTZ (5D, 7F)
 There are   129 symmetry adapted cartesian basis functions of A'  symmetry.
 There are    61 symmetry adapted cartesian basis functions of A"  symmetry.
 There are   106 symmetry adapted basis functions of A'  symmetry.
 There are    55 symmetry adapted basis functions of A"  symmetry.
   161 basis functions,   243 primitive gaussians,   190 cartesian basis functions
    12 alpha electrons       12 beta electrons
       nuclear repulsion energy        62.1851282658 Hartrees.
 NAtoms=    4 NActive=    4 NUniq=    4 SFac= 1.00D+00 NAtFMM=   60 NAOKFM=F Big=F
 Integral buffers will be    131072 words long.
 Raffenetti 1 integral format.
 Two-electron integral symmetry is turned on.
 One-electron integrals computed using PRISM.
 NBasis=   161 RedAO= T EigKep=  1.04D-04  NBF=   106    55
 NBsUse=   161 1.00D-06 EigRej= -1.00D+00 NBFU=   106    55
 ExpMin= 2.53D-02 ExpMax= 1.53D+04 ExpMxC= 5.22D+02 IAcc=3 IRadAn=         5 AccDes= 0.00D+00
 Harris functional with IExCor=  205 and IRadAn=       5 diagonalized for initial guess.
 HarFok:  IExCor=  205 AccDes= 0.00D+00 IRadAn=         5 IDoV= 1 UseB2=F ITyADJ=14
 ICtDFT=  3500011 ScaDFX=  1.000000  1.000000  1.000000  1.000000
 FoFCou: FMM=F IPFlag=           0 FMFlag=      100000 FMFlg1=           0
         NFxFlg=           0 DoJE=T BraDBF=F KetDBF=T FulRan=T
         wScrn=  0.000000 ICntrl=       500 IOpCl=  0 I1Cent=   200000004 NGrid=           0
         NMat0=    1 NMatS0=      1 NMatT0=    0 NMatD0=    1 NMtDS0=    0 NMtDT0=    0
 Petite list used in FoFCou.
 Initial guess orbital symmetries:
       Occupied  (A') (A') (A') (A') (A') (A') (A') (A') (A") (A")
                 (A') (A')
       Virtual   (A") (A') (A') (A') (A") (A') (A') (A') (A') (A")
                 (A") (A') (A') (A') (A") (A') (A') (A') (A") (A')
                 (A') (A") (A') (A') (A") (A') (A') (A') (A') (A")
                 (A') (A') (A") (A") (A') (A") (A") (A') (A') (A')
                 (A') (A') (A") (A") (A') (A") (A') (A') (A') (A")
                 (A') (A') (A") (A') (A') (A") (A") (A') (A') (A")
                 (A') (A') (A') (A") (A') (A') (A') (A") (A') (A")
                 (A") (A") (A') (A") (A') (A') (A') (A') (A") (A')
                 (A') (A') (A") (A") (A') (A') (A') (A") (A") (A')
                 (A') (A') (A") (A") (A') (A') (A') (A") (A") (A')
                 (A") (A') (A') (A") (A') (A') (A') (A") (A') (A')
                 (A") (A') (A") (A') (A") (A') (A") (A') (A') (A')
                 (A') (A') (A") (A') (A') (A") (A') (A") (A") (A')
                 (A') (A") (A") (A') (A') (A") (A") (A') (A") (A')
                 (A") (A') (A') (A') (A') (A') (A') (A') (A')
 The electronic state of the initial guess is 1-A'.
 Keep R1 ints in memory in symmetry-blocked form, NReq=128070129.
 Requested convergence on RMS density matrix=1.00D-08 within 128 cycles.
 Requested convergence on MAX density matrix=1.00D-06.
 Requested convergence on             energy=1.00D-06.
 No special actions if energy rises.
 SCF Done:  E(RHF) =  -188.273093407     A.U. after   11 cycles
            NFock= 11  Conv=0.63D-08     -V/T= 2.0019
 ExpMin= 2.53D-02 ExpMax= 1.53D+04 ExpMxC= 5.22D+02 IAcc=3 IRadAn=         5 AccDes= 0.00D+00
 HarFok:  IExCor=  205 AccDes= 0.00D+00 IRadAn=         5 IDoV=-2 UseB2=F ITyADJ=14
 ICtDFT= 12500011 ScaDFX=  1.000000  1.000000  1.000000  1.000000
 Range of M.O.s used for correlation:     4   161
 NBasis=   161 NAE=    12 NBE=    12 NFC=     3 NFV=     0
 NROrb=    158 NOA=     9 NOB=     9 NVA=   149 NVB=   149

 **** Warning!!: The largest alpha MO coefficient is  0.31413414D+02

 Disk-based method using ON**2 memory for  9 occupieds at a time.
 Permanent disk used for amplitudes=     3924660 words.
 Estimated scratch disk usage=   113146432 words.
 Actual    scratch disk usage=   109232192 words.
 JobTyp=1 Pass  1:  I=   4 to  12 NPSUse=  2 ParTrn=T ParDer=T DoDerP=T.
 (rs|ai) integrals will be sorted in core.
 Spin components of T(2) and E(2):
     alpha-alpha T2 =       0.2475632428D-01 E2=     -0.8619291302D-01
     alpha-beta  T2 =       0.1298389368D+00 E2=     -0.4856267872D+00
     beta-beta   T2 =       0.2475632428D-01 E2=     -0.8619291302D-01
 ANorm=    0.1085979551D+01
 E2 =    -0.6580126132D+00 EUMP2 =    -0.18893110602067D+03
 G2DrvN: will do     5 centers at a time, making    1 passes.
 Calling FoFCou, ICntrl=  3107 FMM=F I1Cent=   0 AccDes= 0.00D+00.
 End of G2Drv F.D. properties file   721 does not exist.
 End of G2Drv F.D. properties file   722 does not exist.
 End of G2Drv F.D. properties file   788 does not exist.
          IDoAtm=1111
          Differentiating once with respect to electric field.
                with respect to dipole field.
          Differentiating once with respect to nuclear coordinates.
 Keep R1 ints in memory in symmetry-blocked form, NReq=128071153.
          There are    15 degrees of freedom in the 1st order CPHF.  IDoFFX=6 NUNeed=    15.
     12 vectors produced by pass  0 Test12= 1.19D-14 6.67D-09 XBig12= 8.95D+00 1.35D+00.
 AX will form    12 AO Fock derivatives at one time.
     12 vectors produced by pass  1 Test12= 1.19D-14 6.67D-09 XBig12= 1.13D+00 2.73D-01.
     12 vectors produced by pass  2 Test12= 1.19D-14 6.67D-09 XBig12= 3.14D-02 3.71D-02.
     12 vectors produced by pass  3 Test12= 1.19D-14 6.67D-09 XBig12= 8.34D-04 6.70D-03.
     12 vectors produced by pass  4 Test12= 1.19D-14 6.67D-09 XBig12= 1.44D-05 8.76D-04.
     12 vectors produced by pass  5 Test12= 1.19D-14 6.67D-09 XBig12= 2.28D-07 1.51D-04.
     12 vectors produced by pass  6 Test12= 1.19D-14 6.67D-09 XBig12= 2.21D-09 1.60D-05.
      8 vectors produced by pass  7 Test12= 1.19D-14 6.67D-09 XBig12= 2.20D-11 1.03D-06.
      4 vectors produced by pass  8 Test12= 1.19D-14 6.67D-09 XBig12= 1.99D-13 9.72D-08.
      1 vectors produced by pass  9 Test12= 1.19D-14 6.67D-09 XBig12= 1.82D-15 1.12D-08.
 InvSVY:  IOpt=1 It=  1 EMax= 1.11D-15
 Solved reduced A of dimension    97 with    12 vectors.
 End of Minotr F.D. properties file   721 does not exist.
 End of Minotr F.D. properties file   722 does not exist.
 End of Minotr F.D. properties file   788 does not exist.
 MDV=   536870912.
 Form MO integral derivatives with frozen-active canonical formalism.
 Discarding MO integrals.
 Reordered first order wavefunction length =      6393888
 In DefCFB: NBatch=  1 ICI= 12 ICA=149 LFMax= 50
            Large arrays: LIAPS=   218779680 LIARS=   130792200 words.
 Semi-Direct transformation.
 ModeAB=           2 MOrb=            12 LenV=     536063119
 LASXX=     23759367 LTotXX=    23759367 LenRXX=    23759367
 LTotAB=    24195042 MaxLAS=    35056140 LenRXY=    35056140
 NonZer=    47518734 LenScr=    72043008 LnRSAI=           0
 LnScr1=           0 LExtra=           0 Total=    130858515
 MaxDsk=          -1 SrtSym=           F ITran=            4
 JobTyp=0 Pass  1:  I=   1 to  12.
 (rs|ai) integrals will be sorted in core.
 Spin components of T(2) and E(2):
     alpha-alpha T2 =       0.2475632428D-01 E2=     -0.8619291302D-01
     alpha-beta  T2 =       0.1298389368D+00 E2=     -0.4856267872D+00
     beta-beta   T2 =       0.2475632428D-01 E2=     -0.8619291302D-01
 ANorm=    0.1535807010D+01
 E2 =    -0.6580126132D+00 EUMP2 =    -0.18893110602067D+03
          IDoAtm=1111
          Differentiating once with respect to electric field.
                with respect to dipole field.
          Differentiating once with respect to nuclear coordinates.
          There are     1 degrees of freedom in the 1st order CPHF.  IDoFFX=0 NUNeed=     1.
 LinEq1:  Iter=  0 NonCon=     1 RMS=6.48D-03 Max=1.02D-01 NDo=     1
 LinEq1:  Iter=  1 NonCon=     1 RMS=1.57D-03 Max=1.73D-02 NDo=     1
 LinEq1:  Iter=  2 NonCon=     1 RMS=5.57D-04 Max=6.73D-03 NDo=     1
 LinEq1:  Iter=  3 NonCon=     1 RMS=2.02D-04 Max=2.13D-03 NDo=     1
 LinEq1:  Iter=  4 NonCon=     1 RMS=6.01D-05 Max=7.87D-04 NDo=     1
 LinEq1:  Iter=  5 NonCon=     1 RMS=1.18D-05 Max=1.24D-04 NDo=     1
 LinEq1:  Iter=  6 NonCon=     1 RMS=2.52D-06 Max=2.98D-05 NDo=     1
 LinEq1:  Iter=  7 NonCon=     1 RMS=4.81D-07 Max=4.98D-06 NDo=     1
 LinEq1:  Iter=  8 NonCon=     1 RMS=7.50D-08 Max=7.23D-07 NDo=     1
 LinEq1:  Iter=  9 NonCon=     1 RMS=1.28D-08 Max=1.65D-07 NDo=     1
 LinEq1:  Iter= 10 NonCon=     1 RMS=1.73D-09 Max=2.59D-08 NDo=     1
 LinEq1:  Iter= 11 NonCon=     1 RMS=2.79D-10 Max=2.81D-09 NDo=     1
 LinEq1:  Iter= 12 NonCon=     1 RMS=1.50D-10 Max=2.07D-09 NDo=     1
 LinEq1:  Iter= 13 NonCon=     0 RMS=3.29D-11 Max=3.59D-10 NDo=     1
 Linear equations converged to 1.000D-10 1.000D-09 after    13 iterations.
 End of Minotr F.D. properties file   721 does not exist.
 End of Minotr F.D. properties file   722 does not exist.
 End of Minotr F.D. properties file   788 does not exist.
 Symmetrizing basis deriv contribution to polar:
 IMax=3 JMax=2 DiffMx= 0.00D+00
 G2DrvN: will do     5 centers at a time, making    1 passes.
 Calling FoFCou, ICntrl=  3107 FMM=F I1Cent=   0 AccDes= 0.00D+00.
 End of G2Drv F.D. properties file   721 does not exist.
 End of G2Drv F.D. properties file   722 does not exist.
 End of G2Drv F.D. properties file   788 does not exist.
 R2 and R3 integrals will be kept in memory, NReq=   332743010.
 DD1Dir will call FoFMem   1 times, MxPair=       156
 NAB=    78 NAA=     0 NBB=     0.
 Discarding MO integrals.

 **********************************************************************

            Population analysis using the SCF Density.

 **********************************************************************

 Orbital symmetries:
       Occupied  (A') (A') (A') (A') (A') (A') (A') (A') (A") (A')
                 (A') (A")
       Virtual   (A') (A') (A") (A') (A') (A') (A') (A") (A") (A')
                 (A') (A') (A") (A') (A") (A') (A') (A') (A') (A")
                 (A") (A') (A') (A") (A') (A') (A') (A') (A') (A")
                 (A') (A') (A") (A') (A") (A") (A') (A') (A") (A')
                 (A') (A") (A') (A') (A") (A') (A") (A') (A') (A")
                 (A') (A") (A') (A') (A') (A") (A") (A') (A') (A")
                 (A') (A') (A') (A") (A') (A') (A") (A') (A') (A")
                 (A") (A") (A") (A') (A') (A') (A') (A') (A") (A')
                 (A') (A') (A") (A") (A') (A') (A') (A") (A") (A')
                 (A') (A') (A") (A") (A') (A') (A") (A') (A") (A')
                 (A') (A") (A') (A") (A') (A') (A') (A") (A') (A')
                 (A") (A') (A') (A") (A") (A") (A') (A') (A') (A')
                 (A') (A') (A") (A') (A') (A") (A') (A") (A") (A')
                 (A') (A") (A") (A') (A") (A') (A') (A") (A') (A")
                 (A") (A') (A') (A') (A') (A') (A') (A') (A')
 The electronic state is 1-A'.
 Alpha  occ. eigenvalues --  -20.28990 -20.28987 -11.12758  -1.15434  -1.05970
 Alpha  occ. eigenvalues --   -0.55327  -0.42796  -0.38689  -0.34030  -0.20937
 Alpha  occ. eigenvalues --   -0.18910  -0.18737
 Alpha virt. eigenvalues --    0.14401   0.21298   0.21411   0.21697   0.28081
 Alpha virt. eigenvalues --    0.31795   0.32772   0.33866   0.36469   0.37058
 Alpha virt. eigenvalues --    0.39211   0.41715   0.42142   0.45675   0.49146
 Alpha virt. eigenvalues --    0.49978   0.51598   0.54269   0.58005   0.59167
 Alpha virt. eigenvalues --    0.61885   0.69741   0.69951   0.72172   0.77525
 Alpha virt. eigenvalues --    0.82282   0.86647   0.92024   0.92949   0.96286
 Alpha virt. eigenvalues --    1.00601   1.01202   1.05255   1.05475   1.06419
 Alpha virt. eigenvalues --    1.09885   1.12099   1.12341   1.13210   1.15747
 Alpha virt. eigenvalues --    1.21369   1.21706   1.22181   1.26013   1.26029
 Alpha virt. eigenvalues --    1.27819   1.32095   1.38639   1.43017   1.43742
 Alpha virt. eigenvalues --    1.45113   1.55827   1.57349   1.63505   1.65368
 Alpha virt. eigenvalues --    1.70876   1.76811   1.78209   1.81120   1.87568
 Alpha virt. eigenvalues --    1.92624   1.99642   2.07144   2.13082   2.20735
 Alpha virt. eigenvalues --    2.23366   2.41289   2.41522   2.44987   2.50371
 Alpha virt. eigenvalues --    2.57779   2.61383   2.64020   2.64126   2.64683
 Alpha virt. eigenvalues --    2.70145   2.72569   2.73531   2.81517   2.81809
 Alpha virt. eigenvalues --    2.85990   2.88357   2.88854   2.90402   2.98000
 Alpha virt. eigenvalues --    3.09370   3.12595   3.14891   3.15528   3.29094
 Alpha virt. eigenvalues --    3.29469   3.40669   3.43198   3.55919   3.64662
 Alpha virt. eigenvalues --    3.79389   3.80276   3.80716   4.04344   4.10381
 Alpha virt. eigenvalues --    4.18602   4.26862   4.27347   4.30175   4.30176
 Alpha virt. eigenvalues --    4.47019   4.52427   4.53133   4.74438   4.80384
 Alpha virt. eigenvalues --    4.85740   5.19613   5.19736   5.23824   5.27418
 Alpha virt. eigenvalues --    5.38638   5.41977   5.43051   5.77695   6.09666
 Alpha virt. eigenvalues --    6.53511   6.56009   6.84468   6.85640   6.87004
 Alpha virt. eigenvalues --    6.87428   7.07172   7.09249   7.10552   7.19239
 Alpha virt. eigenvalues --    7.29377   7.30556   7.38066   7.43510   7.43633
 Alpha virt. eigenvalues --    7.48244   7.53447   7.54713   7.76948   7.79068
 Alpha virt. eigenvalues --    7.85081   7.86453   7.94690   8.01546   8.17983
 Alpha virt. eigenvalues --    8.20631  13.60385  15.21903  16.49482
          Condensed to atoms (all electrons):
               1          2          3          4
     1  C    4.850552   0.418960   0.418956   0.293651
     2  O    0.418960   8.420436  -0.111671  -0.041400
     3  O    0.418956  -0.111671   8.420442  -0.041401
     4  H    0.293651  -0.041400  -0.041401   0.434379
 Mulliken charges:
               1
     1  C    0.017880
     2  O   -0.686325
     3  O   -0.686326
     4  H    0.354771
 Sum of Mulliken charges =  -1.00000
 Mulliken charges with hydrogens summed into heavy atoms:
               1
     1  C    0.372652
     2  O   -0.686325
     3  O   -0.686326
 APT charges:
               1
     1  C    1.259610
     2  O   -1.023591
     3  O   -1.023592
     4  H   -0.212427
 Sum of APT charges =  -1.00000
 APT charges with hydrogens summed into heavy atoms:
               1
     1  C    1.047183
     2  O   -1.023591
     3  O   -1.023592
 Electronic spatial extent (au):  <R**2>=            137.9423
 Charge=             -1.0000 electrons
 Dipole moment (field-independent basis, Debye):
    X=              0.0000    Y=              1.8267    Z=              0.0000  Tot=              1.8267
 Quadrupole moment (field-independent basis, Debye-Ang):
   XX=            -29.7298   YY=            -20.2093   ZZ=            -18.9278
   XY=             -0.0001   XZ=              0.0000   YZ=              0.0000
 Traceless Quadrupole moment (field-independent basis, Debye-Ang):
   XX=             -6.7742   YY=              2.7464   ZZ=              4.0278
   XY=             -0.0001   XZ=              0.0000   YZ=              0.0000
 Octapole moment (field-independent basis, Debye-Ang**2):
  XXX=              0.0000  YYY=             -1.1372  ZZZ=              0.0000  XYY=              0.0000
  XXY=              0.9316  XXZ=              0.0000  XZZ=              0.0000  YZZ=             -0.2805
  YYZ=              0.0000  XYZ=              0.0000
 Hexadecapole moment (field-independent basis, Debye-Ang**3):
 XXXX=           -138.5537 YYYY=            -43.4680 ZZZZ=            -19.8184 XXXY=             -0.0001
 XXXZ=              0.0000 YYYX=             -0.0001 YYYZ=              0.0000 ZZZX=              0.0000
 ZZZY=              0.0000 XXYY=            -28.4440 XXZZ=            -24.9742 YYZZ=            -10.3700
 XXYZ=              0.0000 YYXZ=              0.0000 ZZXY=              0.0000
 N-N= 6.218512826585D+01 E-N=-5.764084771037D+02  KE= 1.879233674894D+02
 Symmetry A'   KE= 1.802980524586D+02
 Symmetry A"   KE= 7.625315030752D+00
  Exact polarizability:  41.322   0.000  36.142   0.000   0.000  23.449
 Approx polarizability:  27.104   0.000  23.266   0.000   0.000  18.550
 Calling FoFJK, ICntrl=  10100127 FMM=F ISym2X=1 I1Cent= 0 IOpClX= 0 NMat=1 NMatS=1 NMatT=0.
 ***** Axes restored to original set *****
 -------------------------------------------------------------------
 Center     Atomic                   Forces (Hartrees/Bohr)
 Number     Number              X              Y              Z
 -------------------------------------------------------------------
      1        6          -0.005318384    0.000000000   -0.002469055
      2        8          -0.000436908    0.000000000   -0.000828486
      3        8          -0.000911550    0.000000000    0.000201807
      4        1           0.006666842    0.000000000    0.003095734
 -------------------------------------------------------------------
 Cartesian Forces:  Max     0.006666842 RMS     0.002741057
 -----------------------------------------------------------------------------------------------
                       Internal Coordinate Forces (Hartree/Bohr or radian)
  Cent   Atom   N1       Length/X         N2         Alpha/Y        N3         Beta/Z          J
 -----------------------------------------------------------------------------------------------
      1  C 
      2  O        1  -0.000828(     1)
      3  O        1  -0.000826(     2)      2   0.001033(     4)
      4  H        1  -0.007351(     3)      2  -0.000005(     5)      3   0.000000(     6)     0
 -----------------------------------------------------------------------------------------------
 Internal  Forces:  Max     0.007350534 RMS     0.003067763

 GradGradGradGradGradGradGradGradGradGradGradGradGradGradGradGradGradGrad
 Berny optimization.
 Search for a local minimum.
 Step number   1 out of a maximum of   20
 All quantities printed in internal units (Hartrees-Bohrs-Radians)
 Second derivative matrix not updated -- analytic derivatives used.
 The second derivative matrix:
                          R1        R2        A1        A2
           R1           1.41751
           R2           0.07292   0.23811
           A1           0.06676  -0.04270   0.48807
           A2           0.00000   0.00000   0.15209   0.30416
 ITU=  0
     Eigenvalues ---    0.19955   0.24680   0.57502   1.42647
 RFO step:  Lambda=-2.27202546D-04 EMin= 1.99547375D-01
 Linear search not attempted -- first point.
 Variable       Old X    -DE/DX   Delta X   Delta X   Delta X     New X
                                 (Linear)    (Quad)   (Total)
    R1        2.37731  -0.00165   0.00000   0.00047   0.00047   2.37778
    R2        2.15754  -0.00735   0.00000  -0.03113  -0.03113   2.12642
    A1        2.27288   0.00103   0.00000  -0.00079  -0.00079   2.27209
    A2        2.00517  -0.00001   0.00000   0.00038   0.00038   2.00555
         Item               Value     Threshold  Converged?
 Maximum Force            0.007351     0.000450     NO 
 RMS     Force            0.003803     0.000300     NO 
 Maximum Displacement     0.031127     0.001800     NO 
 RMS     Displacement     0.015571     0.001200     NO 
 Predicted change in Energy=-1.137116D-04
 GradGradGradGradGradGradGradGradGradGradGradGradGradGradGradGradGradGrad

 ---------------------------------------------------------------------------------------------------
                            Z-MATRIX (ANGSTROMS AND DEGREES)
   CD    Cent   Atom    N1       Length/X        N2       Alpha/Y        N3        Beta/Z          J
 ---------------------------------------------------------------------------------------------------
      1      1  C 
      2      2  O        1   1.258269(     1)
      3      3  O        1   1.258269(     2)      2  130.181(     4)
      4      4  H        1   1.125251(     3)      2  114.909(     5)      3  180.000(     6)      0
 ---------------------------------------------------------------------------------------------------
                         Z-Matrix orientation:                         
 ---------------------------------------------------------------------
 Center     Atomic      Atomic             Coordinates (Angstroms)
 Number     Number       Type             X           Y           Z
 ---------------------------------------------------------------------
      1          6           0        0.000000    0.000000    0.000000
      2          8           0        0.000000    0.000000    1.258269
      3          8           0        0.961328    0.000000   -0.811843
      4          1           0       -1.020575    0.000000   -0.473938
 ---------------------------------------------------------------------
                    Distance matrix (angstroms):
                    1          2          3          4
     1  C    0.000000
     2  O    1.258269   0.000000
     3  O    1.258269   2.282437   0.000000
     4  H    1.125251   2.010502   2.010502   0.000000
 Stoichiometry    CHO2(1-)
 Framework group  CS[SG(CHO2)]
 Deg. of freedom     5
 Full point group                 CS      NOp   2
 Largest Abelian subgroup         CS      NOp   2
 Largest concise Abelian subgroup C1      NOp   1
                         Standard orientation:                         
 ---------------------------------------------------------------------
 Center     Atomic      Atomic             Coordinates (Angstroms)
 Number     Number       Type             X           Y           Z
 ---------------------------------------------------------------------
      1          6           0        0.000000    0.319747    0.000000
      2          8           0        1.141219   -0.210218    0.000000
      3          8           0       -1.141219   -0.210217    0.000000
      4          1           0        0.000001    1.444998    0.000000
 ---------------------------------------------------------------------
 Rotational constants (GHZ):         107.5424216          12.1301891          10.9006555
 Standard basis: Aug-CC-pVTZ (5D, 7F)
 There are   129 symmetry adapted cartesian basis functions of A'  symmetry.
 There are    61 symmetry adapted cartesian basis functions of A"  symmetry.
 There are   106 symmetry adapted basis functions of A'  symmetry.
 There are    55 symmetry adapted basis functions of A"  symmetry.
   161 basis functions,   243 primitive gaussians,   190 cartesian basis functions
    12 alpha electrons       12 beta electrons
       nuclear repulsion energy        62.2449020570 Hartrees.
 NAtoms=    4 NActive=    4 NUniq=    4 SFac= 1.00D+00 NAtFMM=   60 NAOKFM=F Big=F
 Integral buffers will be    131072 words long.
 Raffenetti 1 integral format.
 Two-electron integral symmetry is turned on.
 One-electron integrals computed using PRISM.
 NBasis=   161 RedAO= T EigKep=  9.89D-05  NBF=   106    55
 NBsUse=   161 1.00D-06 EigRej= -1.00D+00 NBFU=   106    55
 Initial guess from the checkpoint file:  "Formate.chk"
 B after Tr=     0.000000    0.000000    0.000000
         Rot=    1.000000    0.000000    0.000000    0.000002 Ang=   0.00 deg.
 Initial guess orbital symmetries:
       Occupied  (A') (A') (A') (A') (A') (A') (A') (A') (A") (A')
                 (A') (A")
       Virtual   (A') (A') (A") (A') (A') (A') (A') (A") (A") (A')
                 (A') (A') (A") (A') (A") (A') (A') (A') (A') (A")
                 (A") (A') (A') (A") (A') (A') (A') (A') (A') (A")
                 (A') (A') (A") (A') (A") (A") (A') (A') (A") (A')
                 (A') (A") (A') (A') (A") (A') (A") (A') (A') (A")
                 (A') (A") (A') (A') (A') (A") (A") (A') (A') (A")
                 (A') (A') (A') (A") (A') (A') (A") (A') (A') (A")
                 (A") (A") (A") (A') (A') (A') (A') (A') (A") (A')
                 (A') (A') (A") (A") (A') (A') (A') (A") (A") (A')
                 (A') (A') (A") (A") (A') (A') (A") (A') (A") (A')
                 (A') (A") (A') (A") (A') (A') (A') (A") (A') (A')
                 (A") (A') (A') (A") (A") (A") (A') (A') (A') (A')
                 (A') (A') (A") (A') (A') (A") (A') (A") (A") (A')
                 (A') (A") (A") (A') (A") (A') (A') (A") (A') (A")
                 (A") (A') (A') (A') (A') (A') (A') (A') (A')
 ExpMin= 2.53D-02 ExpMax= 1.53D+04 ExpMxC= 5.22D+02 IAcc=3 IRadAn=         5 AccDes= 0.00D+00
 Harris functional with IExCor=  205 and IRadAn=       5 diagonalized for initial guess.
 HarFok:  IExCor=  205 AccDes= 0.00D+00 IRadAn=         5 IDoV= 1 UseB2=F ITyADJ=14
 ICtDFT=  3500011 ScaDFX=  1.000000  1.000000  1.000000  1.000000
 FoFCou: FMM=F IPFlag=           0 FMFlag=      100000 FMFlg1=           0
         NFxFlg=           0 DoJE=T BraDBF=F KetDBF=T FulRan=T
         wScrn=  0.000000 ICntrl=       500 IOpCl=  0 I1Cent=   200000004 NGrid=           0
         NMat0=    1 NMatS0=      1 NMatT0=    0 NMatD0=    1 NMtDS0=    0 NMtDT0=    0
 Petite list used in FoFCou.
 Keep R1 ints in memory in symmetry-blocked form, NReq=128070129.
 Requested convergence on RMS density matrix=1.00D-08 within 128 cycles.
 Requested convergence on MAX density matrix=1.00D-06.
 Requested convergence on             energy=1.00D-06.
 No special actions if energy rises.
 SCF Done:  E(RHF) =  -188.273418259     A.U. after    9 cycles
            NFock=  9  Conv=0.55D-08     -V/T= 2.0017
 ExpMin= 2.53D-02 ExpMax= 1.53D+04 ExpMxC= 5.22D+02 IAcc=3 IRadAn=         5 AccDes= 0.00D+00
 HarFok:  IExCor=  205 AccDes= 0.00D+00 IRadAn=         5 IDoV=-2 UseB2=F ITyADJ=14
 ICtDFT= 12500011 ScaDFX=  1.000000  1.000000  1.000000  1.000000
 Range of M.O.s used for correlation:     4   161
 NBasis=   161 NAE=    12 NBE=    12 NFC=     3 NFV=     0
 NROrb=    158 NOA=     9 NOB=     9 NVA=   149 NVB=   149

 **** Warning!!: The largest alpha MO coefficient is  0.32536755D+02

 Fully direct method using O(ONN) memory.
 JobTyp=1 Pass  1:  I=   4 to  12 NPSUse=  2 ParTrn=T ParDer=T DoDerP=T.
 Spin components of T(2) and E(2):
     alpha-alpha T2 =       0.2472358278D-01 E2=     -0.8616659198D-01
     alpha-beta  T2 =       0.1295670932D+00 E2=     -0.4854641393D+00
     beta-beta   T2 =       0.2472358278D-01 E2=     -0.8616659198D-01
 ANorm=    0.1085824230D+01
 E2 =    -0.6577973232D+00 EUMP2 =    -0.18893121558248D+03
          IDoAtm=1111
          Differentiating once with respect to electric field.
                with respect to dipole field.
          Differentiating once with respect to nuclear coordinates.
 Keep R1 ints in memory in symmetry-blocked form, NReq=128071153.
          There are     1 degrees of freedom in the 1st order CPHF.  IDoFFX=0 NUNeed=     1.
 LinEq1:  Iter=  0 NonCon=     1 RMS=6.47D-03 Max=1.03D-01 NDo=     1
 AX will form     1 AO Fock derivatives at one time.
 LinEq1:  Iter=  1 NonCon=     1 RMS=1.56D-03 Max=1.72D-02 NDo=     1
 LinEq1:  Iter=  2 NonCon=     1 RMS=5.55D-04 Max=6.73D-03 NDo=     1
 LinEq1:  Iter=  3 NonCon=     1 RMS=2.01D-04 Max=2.12D-03 NDo=     1
 LinEq1:  Iter=  4 NonCon=     1 RMS=5.97D-05 Max=7.86D-04 NDo=     1
 LinEq1:  Iter=  5 NonCon=     1 RMS=1.17D-05 Max=1.23D-04 NDo=     1
 LinEq1:  Iter=  6 NonCon=     1 RMS=2.50D-06 Max=2.97D-05 NDo=     1
 LinEq1:  Iter=  7 NonCon=     1 RMS=4.77D-07 Max=4.97D-06 NDo=     1
 LinEq1:  Iter=  8 NonCon=     1 RMS=7.48D-08 Max=7.25D-07 NDo=     1
 LinEq1:  Iter=  9 NonCon=     1 RMS=1.28D-08 Max=1.64D-07 NDo=     1
 LinEq1:  Iter= 10 NonCon=     1 RMS=1.73D-09 Max=2.51D-08 NDo=     1
 LinEq1:  Iter= 11 NonCon=     1 RMS=2.34D-10 Max=2.84D-09 NDo=     1
 LinEq1:  Iter= 12 NonCon=     0 RMS=4.16D-11 Max=4.91D-10 NDo=     1
 Linear equations converged to 1.000D-10 1.000D-09 after    12 iterations.
 End of Minotr F.D. properties file   721 does not exist.
 End of Minotr F.D. properties file   722 does not exist.
 End of Minotr F.D. properties file   788 does not exist.
 Calling FoFJK, ICntrl=  10002127 FMM=F ISym2X=1 I1Cent= 0 IOpClX= 0 NMat=1 NMatS=1 NMatT=0.
 ***** Axes restored to original set *****
 -------------------------------------------------------------------
 Center     Atomic                   Forces (Hartrees/Bohr)
 Number     Number              X              Y              Z
 -------------------------------------------------------------------
      1        6           0.000372258    0.000000000    0.000172953
      2        8          -0.000005654    0.000000000   -0.000006228
      3        8          -0.000008486    0.000000000   -0.000000330
      4        1          -0.000358117    0.000000000   -0.000166395
 -------------------------------------------------------------------
 Cartesian Forces:  Max     0.000372258 RMS     0.000164460
 -----------------------------------------------------------------------------------------------
                       Internal Coordinate Forces (Hartree/Bohr or radian)
  Cent   Atom   N1       Length/X         N2         Alpha/Y        N3         Beta/Z          J
 -----------------------------------------------------------------------------------------------
      1  C 
      2  O        1  -0.000006(     1)
      3  O        1  -0.000006(     2)      2   0.000014(     4)
      4  H        1   0.000395(     3)      2   0.000000(     5)      3   0.000000(     6)     0
 -----------------------------------------------------------------------------------------------
 Internal  Forces:  Max     0.000394886 RMS     0.000161348

 GradGradGradGradGradGradGradGradGradGradGradGradGradGradGradGradGradGrad
 Berny optimization.
 Search for a local minimum.
 Step number   2 out of a maximum of   20
 All quantities printed in internal units (Hartrees-Bohrs-Radians)
 Update second derivatives using D2CorN and points    1    2
 DE= -1.10D-04 DEPred=-1.14D-04 R= 9.64D-01
 TightC=F SS=  1.41D+00  RLast= 3.11D-02 DXNew= 5.0454D-01 9.3427D-02
 Trust test= 9.64D-01 RLast= 3.11D-02 DXMaxT set to 3.00D-01
 The second derivative matrix:
                          R1        R2        A1        A2
           R1           1.41752
           R2           0.07262   0.25101
           A1           0.06675  -0.04231   0.48808
           A2           0.00000  -0.00008   0.15208   0.30416
 ITU=  1  0
     Eigenvalues ---    0.20388   0.25524   0.57515   1.42649
 RFO step:  Lambda=-1.74680843D-08 EMin= 2.03883565D-01
 Quartic linear search produced a step of -0.04890.
 Variable       Old X    -DE/DX   Delta X   Delta X   Delta X     New X
                                 (Linear)    (Quad)   (Total)
    R1        2.37778  -0.00001  -0.00002  -0.00008  -0.00010   2.37769
    R2        2.12642   0.00039   0.00152   0.00004   0.00156   2.12798
    A1        2.27209   0.00001   0.00004   0.00017   0.00021   2.27230
    A2        2.00555   0.00000  -0.00002  -0.00008  -0.00010   2.00544
         Item               Value     Threshold  Converged?
 Maximum Force            0.000395     0.000450     YES
 RMS     Force            0.000198     0.000300     YES
 Maximum Displacement     0.001561     0.001800     YES
 RMS     Displacement     0.000790     0.001200     YES
 Predicted change in Energy=-3.251083D-07
 Optimization completed.
    -- Stationary point found.
                       ----------------------------
                       !   Optimized Parameters   !
                       ! (Angstroms and Degrees)  !
 ----------------------                            ----------------------
 !      Name          Value   Derivative information (Atomic Units)     !
 ------------------------------------------------------------------------
 !       R1          1.2583   -DE/DX =    0.0                           !
 !       R2          1.1253   -DE/DX =    0.0004                        !
 !       A1        130.1811   -DE/DX =    0.0                           !
 !       A2        114.9094   -DE/DX =    0.0                           !
 ------------------------------------------------------------------------
 GradGradGradGradGradGradGradGradGradGradGradGradGradGradGradGradGradGrad

 ---------------------------------------------------------------------------------------------------
                            Z-MATRIX (ANGSTROMS AND DEGREES)
   CD    Cent   Atom    N1       Length/X        N2       Alpha/Y        N3        Beta/Z          J
 ---------------------------------------------------------------------------------------------------
      1      1  C 
      2      2  O        1   1.258269(     1)
      3      3  O        1   1.258269(     2)      2  130.181(     4)
      4      4  H        1   1.125251(     3)      2  114.909(     5)      3  180.000(     6)      0
 ---------------------------------------------------------------------------------------------------
                         Z-Matrix orientation:                         
 ---------------------------------------------------------------------
 Center     Atomic      Atomic             Coordinates (Angstroms)
 Number     Number       Type             X           Y           Z
 ---------------------------------------------------------------------
      1          6           0        0.000000    0.000000    0.000000
      2          8           0        0.000000    0.000000    1.258269
      3          8           0        0.961328    0.000000   -0.811843
      4          1           0       -1.020575    0.000000   -0.473938
 ---------------------------------------------------------------------
                    Distance matrix (angstroms):
                    1          2          3          4
     1  C    0.000000
     2  O    1.258269   0.000000
     3  O    1.258269   2.282437   0.000000
     4  H    1.125251   2.010502   2.010502   0.000000
 Stoichiometry    CHO2(1-)
 Framework group  CS[SG(CHO2)]
 Deg. of freedom     5
 Full point group                 CS      NOp   2
 Largest Abelian subgroup         CS      NOp   2
 Largest concise Abelian subgroup C1      NOp   1
                         Standard orientation:                         
 ---------------------------------------------------------------------
 Center     Atomic      Atomic             Coordinates (Angstroms)
 Number     Number       Type             X           Y           Z
 ---------------------------------------------------------------------
      1          6           0        0.000000    0.319747    0.000000
      2          8           0        1.141219   -0.210218    0.000000
      3          8           0       -1.141219   -0.210217    0.000000
      4          1           0        0.000001    1.444998    0.000000
 ---------------------------------------------------------------------
 Rotational constants (GHZ):         107.5424216          12.1301891          10.9006555

 **********************************************************************

            Population analysis using the SCF Density.

 **********************************************************************

 Orbital symmetries:
       Occupied  (A') (A') (A') (A') (A') (A') (A') (A') (A") (A')
                 (A') (A")
       Virtual   (A') (A') (A") (A') (A') (A') (A') (A") (A") (A')
                 (A') (A') (A") (A') (A") (A') (A') (A') (A') (A")
                 (A") (A') (A') (A") (A') (A') (A') (A') (A') (A")
                 (A') (A') (A") (A') (A") (A") (A') (A') (A") (A')
                 (A') (A") (A') (A') (A") (A') (A") (A') (A') (A")
                 (A') (A") (A') (A') (A') (A") (A") (A') (A') (A")
                 (A') (A') (A') (A") (A') (A') (A") (A') (A') (A")
                 (A") (A") (A') (A") (A') (A') (A') (A') (A") (A')
                 (A') (A') (A") (A") (A') (A') (A') (A") (A") (A')
                 (A') (A') (A") (A") (A') (A') (A") (A') (A") (A')
                 (A') (A") (A') (A") (A') (A') (A') (A") (A') (A')
                 (A") (A') (A') (A") (A") (A") (A') (A') (A') (A')
                 (A') (A') (A") (A') (A') (A") (A') (A") (A") (A')
                 (A') (A") (A") (A') (A") (A') (A') (A") (A') (A")
                 (A") (A') (A') (A') (A') (A') (A') (A') (A')
 The electronic state is 1-A'.
 Alpha  occ. eigenvalues --  -20.28904 -20.28901 -11.12516  -1.15365  -1.05879
 Alpha  occ. eigenvalues --   -0.55699  -0.42820  -0.38618  -0.33951  -0.20871
 Alpha  occ. eigenvalues --   -0.18964  -0.18657
 Alpha virt. eigenvalues --    0.14384   0.21299   0.21403   0.21703   0.28057
 Alpha virt. eigenvalues --    0.31802   0.32769   0.33885   0.36460   0.37013
 Alpha virt. eigenvalues --    0.39210   0.41836   0.42147   0.45696   0.49175
 Alpha virt. eigenvalues --    0.50049   0.51607   0.54148   0.58142   0.59209
 Alpha virt. eigenvalues --    0.61871   0.69783   0.70035   0.72303   0.77676
 Alpha virt. eigenvalues --    0.82272   0.86752   0.92000   0.93216   0.96319
 Alpha virt. eigenvalues --    1.01012   1.01266   1.05316   1.05355   1.06427
 Alpha virt. eigenvalues --    1.09655   1.12069   1.12312   1.13221   1.15763
 Alpha virt. eigenvalues --    1.21483   1.21920   1.22458   1.26024   1.26270
 Alpha virt. eigenvalues --    1.27885   1.32097   1.38666   1.42981   1.44160
 Alpha virt. eigenvalues --    1.45364   1.55877   1.57402   1.63792   1.65335
 Alpha virt. eigenvalues --    1.71044   1.76980   1.77822   1.81437   1.87725
 Alpha virt. eigenvalues --    1.92556   1.99799   2.07800   2.13668   2.22983
 Alpha virt. eigenvalues --    2.23251   2.41374   2.41573   2.45066   2.50434
 Alpha virt. eigenvalues --    2.57938   2.61431   2.64161   2.64178   2.64724
 Alpha virt. eigenvalues --    2.70077   2.72603   2.73589   2.81591   2.81798
 Alpha virt. eigenvalues --    2.86008   2.88411   2.89073   2.90357   2.98172
 Alpha virt. eigenvalues --    3.09400   3.12678   3.14942   3.15706   3.28024
 Alpha virt. eigenvalues --    3.30121   3.41128   3.43423   3.56114   3.64118
 Alpha virt. eigenvalues --    3.79535   3.79977   3.80291   4.04755   4.11311
 Alpha virt. eigenvalues --    4.20889   4.26858   4.27432   4.30462   4.30551
 Alpha virt. eigenvalues --    4.46966   4.53076   4.54588   4.74661   4.81271
 Alpha virt. eigenvalues --    4.87083   5.21080   5.21190   5.26643   5.27727
 Alpha virt. eigenvalues --    5.39592   5.45048   5.45689   5.81655   6.10926
 Alpha virt. eigenvalues --    6.53609   6.55886   6.84535   6.85735   6.87118
 Alpha virt. eigenvalues --    6.87498   7.07275   7.09320   7.10627   7.19678
 Alpha virt. eigenvalues --    7.29977   7.30811   7.38225   7.43670   7.43879
 Alpha virt. eigenvalues --    7.48336   7.53444   7.54785   7.77533   7.79140
 Alpha virt. eigenvalues --    7.85133   7.86637   7.94978   8.01821   8.18187
 Alpha virt. eigenvalues --    8.21814  13.59963  15.28688  16.61262
          Condensed to atoms (all electrons):
               1          2          3          4
     1  C    4.881801   0.418111   0.418111   0.281239
     2  O    0.418111   8.424983  -0.111485  -0.040640
     3  O    0.418111  -0.111485   8.424983  -0.040640
     4  H    0.281239  -0.040640  -0.040640   0.418841
 Mulliken charges:
               1
     1  C    0.000738
     2  O   -0.690969
     3  O   -0.690969
     4  H    0.381200
 Sum of Mulliken charges =  -1.00000
 Mulliken charges with hydrogens summed into heavy atoms:
               1
     1  C    0.381937
     2  O   -0.690969
     3  O   -0.690969
 Electronic spatial extent (au):  <R**2>=            137.7263
 Charge=             -1.0000 electrons
 Dipole moment (field-independent basis, Debye):
    X=              0.0000    Y=              1.8731    Z=              0.0000  Tot=              1.8731
 Quadrupole moment (field-independent basis, Debye-Ang):
   XX=            -29.7585   YY=            -20.1171   ZZ=            -18.9097
   XY=              0.0000   XZ=              0.0000   YZ=              0.0000
 Traceless Quadrupole moment (field-independent basis, Debye-Ang):
   XX=             -6.8301   YY=              2.8113   ZZ=              4.0187
   XY=              0.0000   XZ=              0.0000   YZ=              0.0000
 Octapole moment (field-independent basis, Debye-Ang**2):
  XXX=              0.0000  YYY=             -0.8674  ZZZ=              0.0000  XYY=              0.0000
  XXY=              0.9685  XXZ=              0.0000  XZZ=              0.0000  YZZ=             -0.2242
  YYZ=              0.0000  XYZ=              0.0000
 Hexadecapole moment (field-independent basis, Debye-Ang**3):
 XXXX=           -138.7653 YYYY=            -42.5860 ZZZZ=            -19.7908 XXXY=              0.0000
 XXXZ=              0.0000 YYYX=              0.0000 YYYZ=              0.0000 ZZZX=              0.0000
 ZZZY=              0.0000 XXYY=            -28.3615 XXZZ=            -24.9977 YYZZ=            -10.2340
 XXYZ=              0.0000 YYXZ=              0.0000 ZZXY=              0.0000
 N-N= 6.224490205703D+01 E-N=-5.765594719350D+02  KE= 1.879457217677D+02
 Symmetry A'   KE= 1.803256547876D+02
 Symmetry A"   KE= 7.620066980092D+00
 1|1|UNPC-DESKTOP-F4NP0R6|POpt|RMP2-FC|Aug-CC-pVTZ|C1H1O2(1-)|GARRETT|2
 2-Jul-2018|1||# MP2 Aug-cc-pvTZ opt=(noeigen,calcfc,z-matrix) freq||Fo
 rmate||-1,1|C|O,1,R1|O,1,R1,2,A1|H,1,R2,2,A2,3,180.,0||R1=1.25826949|R
 2=1.12525117|A1=130.18114751|A2=114.90939537||Version=EM64W-G16RevB.01
 |State=1-A'|HF=-188.2734183|MP2=-188.9312156|RMSD=5.537e-009|RMSF=1.64
 5e-004|Dipole=-0.5249791,0.,-0.243792|PG=CS [SG(C1H1O2)]||@


 THESE ARE THE TIMES THAT TRY MENS SOULS.
 THE SUMMER SOLDIER AND THE SUNSHINE PATRIOT WILL IN THIS CRISIS,
 SHRINK FROM THE SERVICE OF HIS COUNTRY.  BUT HE THAT STANDS NOW,
 DESERVES THE LOVE AND THANKS OF MAN AND WOMAN.
 TYRANNY, LIKE HELL, IS NOT EASILY CONQUERED,
 YET WE HAVE THIS CONSOLATION WITH US,
 THAT THE HARDER THE CONFLICT, THE MORE GLORIOUS THE TRIUMPH.
 WHAT WE OBTAIN TOO CHEAP, WE ESTEEM TOO LIGHTLY, 
 'TIS DEARNESS ONLY THAT GIVES EVERYTHING ITS VALUE.

                                              -- TOM PAINE
 Job cpu time:       0 days  0 hours 38 minutes 32.0 seconds.
 Elapsed time:       0 days  0 hours 38 minutes 19.1 seconds.
 File lengths (MBytes):  RWF=   2790 Int=      0 D2E=      0 Chk=      4 Scr=      1
 Normal termination of Gaussian 16 at Sun Jul 22 22:24:27 2018.
 Link1:  Proceeding to internal job step number  2.
 ----------------------------------------------------------------------
 #N Geom=AllCheck Guess=TCheck SCRF=Check GenChk RMP2(FC)/Aug-CC-pVTZ F
 req
 ----------------------------------------------------------------------
 1/10=4,11=1,29=7,30=1,38=1,40=1/1,3;
 2/12=2,40=1/2;
 3/5=16,6=1,7=10,11=1,14=-4,25=1,30=1,70=2,71=2,116=1,140=1/1,2,3;
 4/5=101/1;
 5/5=2,38=6,98=1/2;
 8/6=3,8=1,10=1,19=11,30=-1/1;
 9/15=3,16=-3/6;
 11/6=1,8=1,15=11,17=12,24=-1,27=1,28=-2,29=300,32=6,42=3/1,2,10;
 10/6=2,21=1/2;
 8/6=4,8=1,10=1,19=11,30=-1/11,4;
 10/5=1,20=4/2;
 11/12=2,14=11,16=1,17=2,28=-2,42=3,76=2/2,10,12;
 6/7=2,8=2,9=2,10=2/1;
 7/8=1,10=1,12=2,25=1,44=2/1,2,3,16;
 1/10=4,11=1,30=1/3;
 99//99;
 Structure from the checkpoint file:  "Formate.chk"
 -------
 Formate
 -------
 Charge = -1 Multiplicity = 1
 Z-Matrix found in chk file.
 C
 O,1,R1
 O,1,R1,2,A1
 H,1,R2,2,A2,3,180.,0
      Variables:
 R1=1.25826949
 R2=1.12525117
 A1=130.18114751
 A2=114.90939537
 Recover connectivity data from disk.

 GradGradGradGradGradGradGradGradGradGradGradGradGradGradGradGradGradGrad
 Berny optimization.
 Initialization pass.
                       ----------------------------
                       !    Initial Parameters    !
                       ! (Angstroms and Degrees)  !
 ----------------------                            ----------------------
 !      Name          Value   Derivative information (Atomic Units)     !
 ------------------------------------------------------------------------
 !       R1          1.2583   calculate D2E/DX2 analytically            !
 !       R2          1.1253   calculate D2E/DX2 analytically            !
 !       A1        130.1811   calculate D2E/DX2 analytically            !
 !       A2        114.9094   calculate D2E/DX2 analytically            !
 ------------------------------------------------------------------------
 Trust Radius=3.00D-01 FncErr=1.00D-07 GrdErr=1.00D-07 EigMax=2.50D+02 EigMin=1.00D-04
 Number of steps in this run=      2 maximum allowed number of steps=      2.
 GradGradGradGradGradGradGradGradGradGradGradGradGradGradGradGradGradGrad

                          Input orientation:                          
 ---------------------------------------------------------------------
 Center     Atomic      Atomic             Coordinates (Angstroms)
 Number     Number       Type             X           Y           Z
 ---------------------------------------------------------------------
      1          6           0        0.000000    0.000000    0.000000
      2          8           0        0.000000    0.000000    1.258269
      3          8           0        0.961328    0.000000   -0.811843
      4          1           0       -1.020575    0.000000   -0.473938
 ---------------------------------------------------------------------
                    Distance matrix (angstroms):
                    1          2          3          4
     1  C    0.000000
     2  O    1.258269   0.000000
     3  O    1.258269   2.282437   0.000000
     4  H    1.125251   2.010502   2.010502   0.000000
 Stoichiometry    CHO2(1-)
 Framework group  CS[SG(CHO2)]
 Deg. of freedom     5
 Full point group                 CS      NOp   2
 Largest Abelian subgroup         CS      NOp   2
 Largest concise Abelian subgroup C1      NOp   1
                         Standard orientation:                         
 ---------------------------------------------------------------------
 Center     Atomic      Atomic             Coordinates (Angstroms)
 Number     Number       Type             X           Y           Z
 ---------------------------------------------------------------------
      1          6           0        0.000000    0.319747    0.000000
      2          8           0        1.141219   -0.210218    0.000000
      3          8           0       -1.141219   -0.210217    0.000000
      4          1           0        0.000001    1.444998    0.000000
 ---------------------------------------------------------------------
 Rotational constants (GHZ):         107.5424216          12.1301891          10.9006555
 Standard basis: Aug-CC-pVTZ (5D, 7F)
 There are   129 symmetry adapted cartesian basis functions of A'  symmetry.
 There are    61 symmetry adapted cartesian basis functions of A"  symmetry.
 There are   106 symmetry adapted basis functions of A'  symmetry.
 There are    55 symmetry adapted basis functions of A"  symmetry.
   161 basis functions,   243 primitive gaussians,   190 cartesian basis functions
    12 alpha electrons       12 beta electrons
       nuclear repulsion energy        62.2449020570 Hartrees.
 NAtoms=    4 NActive=    4 NUniq=    4 SFac= 1.00D+00 NAtFMM=   60 NAOKFM=F Big=F
 Integral buffers will be    131072 words long.
 Raffenetti 1 integral format.
 Two-electron integral symmetry is turned on.
 One-electron integrals computed using PRISM.
 NBasis=   161 RedAO= T EigKep=  9.89D-05  NBF=   106    55
 NBsUse=   161 1.00D-06 EigRej= -1.00D+00 NBFU=   106    55
 Initial guess from the checkpoint file:  "Formate.chk"
 B after Tr=     0.000000    0.000000    0.000000
         Rot=    1.000000    0.000000    0.000000    0.000000 Ang=   0.00 deg.
 Initial guess orbital symmetries:
       Occupied  (A') (A') (A') (A') (A') (A') (A') (A') (A") (A')
                 (A') (A")
       Virtual   (A') (A') (A") (A') (A') (A') (A') (A") (A") (A')
                 (A') (A') (A") (A') (A") (A') (A') (A') (A') (A")
                 (A") (A') (A') (A") (A') (A') (A') (A') (A') (A")
                 (A') (A') (A") (A') (A") (A") (A') (A') (A") (A')
                 (A') (A") (A') (A') (A") (A') (A") (A') (A') (A")
                 (A') (A") (A') (A') (A') (A") (A") (A') (A') (A")
                 (A') (A') (A') (A") (A') (A') (A") (A') (A') (A")
                 (A") (A") (A') (A") (A') (A') (A') (A') (A") (A')
                 (A') (A') (A") (A") (A') (A') (A') (A") (A") (A')
                 (A') (A') (A") (A") (A') (A') (A") (A') (A") (A')
                 (A') (A") (A') (A") (A') (A') (A') (A") (A') (A')
                 (A") (A') (A') (A") (A") (A") (A') (A') (A') (A')
                 (A') (A') (A") (A') (A') (A") (A') (A") (A") (A')
                 (A') (A") (A") (A') (A") (A') (A') (A") (A') (A")
                 (A") (A') (A') (A') (A') (A') (A') (A') (A')
 Keep R1 ints in memory in symmetry-blocked form, NReq=128070129.
 Requested convergence on RMS density matrix=1.00D-08 within 128 cycles.
 Requested convergence on MAX density matrix=1.00D-06.
 Requested convergence on             energy=1.00D-06.
 No special actions if energy rises.
 SCF Done:  E(RHF) =  -188.273418259     A.U. after    1 cycles
            NFock=  1  Conv=0.16D-08     -V/T= 2.0017
 ExpMin= 2.53D-02 ExpMax= 1.53D+04 ExpMxC= 5.22D+02 IAcc=3 IRadAn=         5 AccDes= 0.00D+00
 HarFok:  IExCor=  205 AccDes= 0.00D+00 IRadAn=         5 IDoV=-2 UseB2=F ITyADJ=14
 ICtDFT= 12500011 ScaDFX=  1.000000  1.000000  1.000000  1.000000
 Range of M.O.s used for correlation:     4   161
 NBasis=   161 NAE=    12 NBE=    12 NFC=     3 NFV=     0
 NROrb=    158 NOA=     9 NOB=     9 NVA=   149 NVB=   149

 **** Warning!!: The largest alpha MO coefficient is  0.32536754D+02

 Disk-based method using ON**2 memory for  9 occupieds at a time.
 Permanent disk used for amplitudes=     3924660 words.
 Estimated scratch disk usage=   113146432 words.
 Actual    scratch disk usage=   109232192 words.
 JobTyp=1 Pass  1:  I=   4 to  12 NPSUse=  2 ParTrn=T ParDer=T DoDerP=T.
 (rs|ai) integrals will be sorted in core.
 Spin components of T(2) and E(2):
     alpha-alpha T2 =       0.2472358294D-01 E2=     -0.8616659236D-01
     alpha-beta  T2 =       0.1295670940D+00 E2=     -0.4854641407D+00
     beta-beta   T2 =       0.2472358294D-01 E2=     -0.8616659236D-01
 ANorm=    0.1085824231D+01
 E2 =    -0.6577973254D+00 EUMP2 =    -0.18893121558467D+03
 G2DrvN: will do     5 centers at a time, making    1 passes.
 Calling FoFCou, ICntrl=  3107 FMM=F I1Cent=   0 AccDes= 0.00D+00.
 End of G2Drv F.D. properties file   721 does not exist.
 End of G2Drv F.D. properties file   722 does not exist.
 End of G2Drv F.D. properties file   788 does not exist.
          IDoAtm=1111
          Differentiating once with respect to electric field.
                with respect to dipole field.
          Differentiating once with respect to nuclear coordinates.
 Keep R1 ints in memory in symmetry-blocked form, NReq=128071153.
          There are    15 degrees of freedom in the 1st order CPHF.  IDoFFX=6 NUNeed=    15.
     12 vectors produced by pass  0 Test12= 1.19D-14 6.67D-09 XBig12= 8.93D+00 1.36D+00.
 AX will form    12 AO Fock derivatives at one time.
     12 vectors produced by pass  1 Test12= 1.19D-14 6.67D-09 XBig12= 1.12D+00 2.74D-01.
     12 vectors produced by pass  2 Test12= 1.19D-14 6.67D-09 XBig12= 3.14D-02 3.75D-02.
     12 vectors produced by pass  3 Test12= 1.19D-14 6.67D-09 XBig12= 8.29D-04 6.72D-03.
     12 vectors produced by pass  4 Test12= 1.19D-14 6.67D-09 XBig12= 1.43D-05 8.92D-04.
     12 vectors produced by pass  5 Test12= 1.19D-14 6.67D-09 XBig12= 2.26D-07 1.50D-04.
     12 vectors produced by pass  6 Test12= 1.19D-14 6.67D-09 XBig12= 2.18D-09 1.60D-05.
      9 vectors produced by pass  7 Test12= 1.19D-14 6.67D-09 XBig12= 2.17D-11 1.01D-06.
      4 vectors produced by pass  8 Test12= 1.19D-14 6.67D-09 XBig12= 1.87D-13 9.51D-08.
      1 vectors produced by pass  9 Test12= 1.19D-14 6.67D-09 XBig12= 1.82D-15 1.08D-08.
 InvSVY:  IOpt=1 It=  1 EMax= 1.33D-15
 Solved reduced A of dimension    98 with    12 vectors.
 End of Minotr F.D. properties file   721 does not exist.
 End of Minotr F.D. properties file   722 does not exist.
 End of Minotr F.D. properties file   788 does not exist.
 MDV=   536870912.
 Form MO integral derivatives with frozen-active canonical formalism.
 Discarding MO integrals.
 Reordered first order wavefunction length =      6393888
 In DefCFB: NBatch=  1 ICI= 12 ICA=149 LFMax= 50
            Large arrays: LIAPS=   218779680 LIARS=   130792200 words.
 Semi-Direct transformation.
 ModeAB=           2 MOrb=            12 LenV=     536063091
 LASXX=     23759367 LTotXX=    23759367 LenRXX=    23759367
 LTotAB=    24195042 MaxLAS=    35056140 LenRXY=    35056140
 NonZer=    47518734 LenScr=    72043008 LnRSAI=           0
 LnScr1=           0 LExtra=           0 Total=    130858515
 MaxDsk=          -1 SrtSym=           F ITran=            4
 JobTyp=0 Pass  1:  I=   1 to  12.
 (rs|ai) integrals will be sorted in core.
 Spin components of T(2) and E(2):
     alpha-alpha T2 =       0.2472358294D-01 E2=     -0.8616659236D-01
     alpha-beta  T2 =       0.1295670940D+00 E2=     -0.4854641407D+00
     beta-beta   T2 =       0.2472358294D-01 E2=     -0.8616659236D-01
 ANorm=    0.1535587353D+01
 E2 =    -0.6577973254D+00 EUMP2 =    -0.18893121558467D+03
          IDoAtm=1111
          Differentiating once with respect to electric field.
                with respect to dipole field.
          Differentiating once with respect to nuclear coordinates.
          There are     1 degrees of freedom in the 1st order CPHF.  IDoFFX=0 NUNeed=     1.
 LinEq1:  Iter=  0 NonCon=     1 RMS=6.47D-03 Max=1.03D-01 NDo=     1
 LinEq1:  Iter=  1 NonCon=     1 RMS=1.56D-03 Max=1.72D-02 NDo=     1
 LinEq1:  Iter=  2 NonCon=     1 RMS=5.55D-04 Max=6.73D-03 NDo=     1
 LinEq1:  Iter=  3 NonCon=     1 RMS=2.01D-04 Max=2.12D-03 NDo=     1
 LinEq1:  Iter=  4 NonCon=     1 RMS=5.97D-05 Max=7.86D-04 NDo=     1
 LinEq1:  Iter=  5 NonCon=     1 RMS=1.17D-05 Max=1.23D-04 NDo=     1
 LinEq1:  Iter=  6 NonCon=     1 RMS=2.50D-06 Max=2.97D-05 NDo=     1
 LinEq1:  Iter=  7 NonCon=     1 RMS=4.77D-07 Max=4.97D-06 NDo=     1
 LinEq1:  Iter=  8 NonCon=     1 RMS=7.48D-08 Max=7.25D-07 NDo=     1
 LinEq1:  Iter=  9 NonCon=     1 RMS=1.28D-08 Max=1.64D-07 NDo=     1
 LinEq1:  Iter= 10 NonCon=     1 RMS=1.73D-09 Max=2.51D-08 NDo=     1
 LinEq1:  Iter= 11 NonCon=     1 RMS=2.33D-10 Max=2.84D-09 NDo=     1
 LinEq1:  Iter= 12 NonCon=     0 RMS=3.62D-11 Max=3.59D-10 NDo=     1
 Linear equations converged to 1.000D-10 1.000D-09 after    12 iterations.
 End of Minotr F.D. properties file   721 does not exist.
 End of Minotr F.D. properties file   722 does not exist.
 End of Minotr F.D. properties file   788 does not exist.
 Symmetrizing basis deriv contribution to polar:
 IMax=3 JMax=2 DiffMx= 0.00D+00
 G2DrvN: will do     5 centers at a time, making    1 passes.
 Calling FoFCou, ICntrl=  3107 FMM=F I1Cent=   0 AccDes= 0.00D+00.
 End of G2Drv F.D. properties file   721 does not exist.
 End of G2Drv F.D. properties file   722 does not exist.
 End of G2Drv F.D. properties file   788 does not exist.
 R2 and R3 integrals will be kept in memory, NReq=   332743010.
 DD1Dir will call FoFMem   1 times, MxPair=       156
 NAB=    78 NAA=     0 NBB=     0.
 Discarding MO integrals.

 **********************************************************************

            Population analysis using the SCF Density.

 **********************************************************************

 Orbital symmetries:
       Occupied  (A') (A') (A') (A') (A') (A') (A') (A') (A") (A')
                 (A') (A")
       Virtual   (A') (A') (A") (A') (A') (A') (A') (A") (A") (A')
                 (A') (A') (A") (A') (A") (A') (A') (A') (A') (A")
                 (A") (A') (A') (A") (A') (A') (A') (A') (A') (A")
                 (A') (A') (A") (A') (A") (A") (A') (A') (A") (A')
                 (A') (A") (A') (A') (A") (A') (A") (A') (A') (A")
                 (A') (A") (A') (A') (A') (A") (A") (A') (A') (A")
                 (A') (A') (A') (A") (A') (A') (A") (A') (A') (A")
                 (A") (A") (A') (A") (A') (A') (A') (A') (A") (A')
                 (A') (A') (A") (A") (A') (A') (A') (A") (A") (A')
                 (A') (A') (A") (A") (A') (A') (A") (A') (A") (A')
                 (A') (A") (A') (A") (A') (A') (A') (A") (A') (A')
                 (A") (A') (A') (A") (A") (A") (A') (A') (A') (A')
                 (A') (A') (A") (A') (A') (A") (A') (A") (A") (A')
                 (A') (A") (A") (A') (A") (A') (A') (A") (A') (A")
                 (A") (A') (A') (A') (A') (A') (A') (A') (A')
 The electronic state is 1-A'.
 Alpha  occ. eigenvalues --  -20.28904 -20.28901 -11.12516  -1.15365  -1.05879
 Alpha  occ. eigenvalues --   -0.55699  -0.42820  -0.38618  -0.33951  -0.20871
 Alpha  occ. eigenvalues --   -0.18964  -0.18657
 Alpha virt. eigenvalues --    0.14384   0.21299   0.21403   0.21703   0.28057
 Alpha virt. eigenvalues --    0.31802   0.32769   0.33885   0.36460   0.37013
 Alpha virt. eigenvalues --    0.39210   0.41836   0.42147   0.45696   0.49175
 Alpha virt. eigenvalues --    0.50049   0.51607   0.54148   0.58142   0.59209
 Alpha virt. eigenvalues --    0.61871   0.69783   0.70035   0.72303   0.77676
 Alpha virt. eigenvalues --    0.82272   0.86752   0.92000   0.93216   0.96319
 Alpha virt. eigenvalues --    1.01012   1.01266   1.05316   1.05355   1.06427
 Alpha virt. eigenvalues --    1.09655   1.12069   1.12312   1.13221   1.15763
 Alpha virt. eigenvalues --    1.21483   1.21920   1.22458   1.26024   1.26270
 Alpha virt. eigenvalues --    1.27885   1.32097   1.38666   1.42981   1.44160
 Alpha virt. eigenvalues --    1.45364   1.55877   1.57402   1.63792   1.65335
 Alpha virt. eigenvalues --    1.71044   1.76980   1.77822   1.81437   1.87725
 Alpha virt. eigenvalues --    1.92556   1.99799   2.07800   2.13668   2.22983
 Alpha virt. eigenvalues --    2.23251   2.41374   2.41573   2.45066   2.50434
 Alpha virt. eigenvalues --    2.57938   2.61431   2.64161   2.64178   2.64724
 Alpha virt. eigenvalues --    2.70077   2.72603   2.73589   2.81591   2.81798
 Alpha virt. eigenvalues --    2.86008   2.88411   2.89073   2.90357   2.98172
 Alpha virt. eigenvalues --    3.09400   3.12678   3.14942   3.15706   3.28024
 Alpha virt. eigenvalues --    3.30121   3.41128   3.43423   3.56114   3.64118
 Alpha virt. eigenvalues --    3.79535   3.79977   3.80291   4.04755   4.11311
 Alpha virt. eigenvalues --    4.20889   4.26858   4.27432   4.30462   4.30551
 Alpha virt. eigenvalues --    4.46966   4.53076   4.54588   4.74661   4.81271
 Alpha virt. eigenvalues --    4.87083   5.21080   5.21190   5.26643   5.27727
 Alpha virt. eigenvalues --    5.39592   5.45048   5.45689   5.81655   6.10926
 Alpha virt. eigenvalues --    6.53609   6.55886   6.84535   6.85735   6.87118
 Alpha virt. eigenvalues --    6.87498   7.07275   7.09320   7.10627   7.19678
 Alpha virt. eigenvalues --    7.29977   7.30811   7.38225   7.43670   7.43879
 Alpha virt. eigenvalues --    7.48336   7.53444   7.54785   7.77533   7.79140
 Alpha virt. eigenvalues --    7.85133   7.86637   7.94978   8.01821   8.18187
 Alpha virt. eigenvalues --    8.21814  13.59963  15.28688  16.61262
          Condensed to atoms (all electrons):
               1          2          3          4
     1  C    4.881801   0.418111   0.418111   0.281239
     2  O    0.418111   8.424983  -0.111485  -0.040640
     3  O    0.418111  -0.111485   8.424983  -0.040640
     4  H    0.281239  -0.040640  -0.040640   0.418841
 Mulliken charges:
               1
     1  C    0.000737
     2  O   -0.690969
     3  O   -0.690969
     4  H    0.381200
 Sum of Mulliken charges =  -1.00000
 Mulliken charges with hydrogens summed into heavy atoms:
               1
     1  C    0.381937
     2  O   -0.690969
     3  O   -0.690969
 APT charges:
               1
     1  C    1.243290
     2  O   -1.021514
     3  O   -1.021514
     4  H   -0.200261
 Sum of APT charges =  -1.00000
 APT charges with hydrogens summed into heavy atoms:
               1
     1  C    1.043029
     2  O   -1.021514
     3  O   -1.021514
 Electronic spatial extent (au):  <R**2>=            137.7263
 Charge=             -1.0000 electrons
 Dipole moment (field-independent basis, Debye):
    X=              0.0000    Y=              1.8731    Z=              0.0000  Tot=              1.8731
 Quadrupole moment (field-independent basis, Debye-Ang):
   XX=            -29.7585   YY=            -20.1171   ZZ=            -18.9097
   XY=              0.0000   XZ=              0.0000   YZ=              0.0000
 Traceless Quadrupole moment (field-independent basis, Debye-Ang):
   XX=             -6.8301   YY=              2.8113   ZZ=              4.0187
   XY=              0.0000   XZ=              0.0000   YZ=              0.0000
 Octapole moment (field-independent basis, Debye-Ang**2):
  XXX=              0.0000  YYY=             -0.8674  ZZZ=              0.0000  XYY=              0.0000
  XXY=              0.9685  XXZ=              0.0000  XZZ=              0.0000  YZZ=             -0.2242
  YYZ=              0.0000  XYZ=              0.0000
 Hexadecapole moment (field-independent basis, Debye-Ang**3):
 XXXX=           -138.7653 YYYY=            -42.5860 ZZZZ=            -19.7908 XXXY=              0.0000
 XXXZ=              0.0000 YYYX=              0.0000 YYYZ=              0.0000 ZZZX=              0.0000
 ZZZY=              0.0000 XXYY=            -28.3615 XXZZ=            -24.9977 YYZZ=            -10.2340
 XXYZ=              0.0000 YYXZ=              0.0000 ZZXY=              0.0000
 N-N= 6.224490205703D+01 E-N=-5.765594720110D+02  KE= 1.879457218141D+02
 Symmetry A'   KE= 1.803256548523D+02
 Symmetry A"   KE= 7.620066961748D+00
  Exact polarizability:  41.320   0.000  35.510   0.000   0.000  23.366
 Approx polarizability:  27.039   0.000  22.931   0.000   0.000  18.492
 Calling FoFJK, ICntrl=  10100127 FMM=F ISym2X=1 I1Cent= 0 IOpClX= 0 NMat=1 NMatS=1 NMatT=0.
 Full mass-weighted force constant matrix:
 Low frequencies ---  -36.0944  -11.3801   -0.0012    0.0006    0.0011    1.4894
 Low frequencies ---  737.6183 1044.7469 1332.7596
 Diagonal vibrational polarizability:
        8.7937569       4.0819732       0.0002135
 Harmonic frequencies (cm**-1), IR intensities (KM/Mole), Raman scattering
 activities (A**4/AMU), depolarization ratios for plane and unpolarized
 incident light, reduced masses (AMU), force constants (mDyne/A),
 and normal coordinates:
                      1                      2                      3
                     A'                     A"                     A'
 Frequencies --    737.6183              1044.7446              1332.7596
 Red. masses --     11.6846                 1.8340                11.2888
 Frc consts  --      3.7457                 1.1794                11.8141
 IR Inten    --     17.3376                 0.0087                96.2878
  Atom  AN      X      Y      Z        X      Y      Z        X      Y      Z
     1   6     0.00  -0.51   0.00     0.00   0.00  -0.25     0.00   0.62   0.00
     2   8     0.47   0.21   0.00     0.00   0.00   0.06     0.38  -0.25   0.00
     3   8    -0.47   0.21   0.00     0.00   0.00   0.06    -0.38  -0.25   0.00
     4   1     0.00  -0.47   0.00     0.00   0.00   0.96     0.00   0.46   0.00
                      4                      5                      6
                     A'                     A'                     A'
 Frequencies --   1376.2257              1647.9263              2706.6936
 Red. masses --      1.0855                12.0215                 1.0666
 Frc consts  --      1.2113                19.2347                 4.6040
 IR Inten    --      4.7792               880.5423               480.6617
  Atom  AN      X      Y      Z        X      Y      Z        X      Y      Z
     1   6    -0.02   0.00   0.00     0.84   0.00   0.00     0.00  -0.07   0.00
     2   8    -0.03   0.04   0.00    -0.31   0.13   0.00     0.00   0.00   0.00
     3   8    -0.03  -0.04   0.00    -0.31  -0.13   0.00     0.00   0.00   0.00
     4   1     1.00   0.00   0.00    -0.28   0.00   0.00     0.00   1.00   0.00

 -------------------
 - Thermochemistry -
 -------------------
 Temperature   298.150 Kelvin.  Pressure   1.00000 Atm.
 Atom     1 has atomic number  6 and mass  12.00000
 Atom     2 has atomic number  8 and mass  15.99491
 Atom     3 has atomic number  8 and mass  15.99491
 Atom     4 has atomic number  1 and mass   1.00783
 Molecular mass:    44.99765 amu.
 Principal axes and moments of inertia in atomic units:
                           1         2         3
     Eigenvalues --    16.78167 148.78096 165.56263
           X            1.00000   0.00000   0.00000
           Y            0.00000   1.00000   0.00000
           Z            0.00000   0.00000   1.00000
 This molecule is an asymmetric top.
 Rotational symmetry number  1.
 Rotational temperatures (Kelvin)      5.16122     0.58216     0.52315
 Rotational constants (GHZ):         107.54242    12.13019    10.90066
 Zero-point vibrational energy      52910.6 (Joules/Mol)
                                   12.64595 (Kcal/Mol)
 Vibrational temperatures:   1061.27  1503.15  1917.54  1980.08  2371.00
          (Kelvin)           3894.33
 
 Zero-point correction=                           0.020153 (Hartree/Particle)
 Thermal correction to Energy=                    0.023135
 Thermal correction to Enthalpy=                  0.024079
 Thermal correction to Gibbs Free Energy=        -0.003660
 Sum of electronic and zero-point Energies=           -188.911063
 Sum of electronic and thermal Energies=              -188.908080
 Sum of electronic and thermal Enthalpies=            -188.907136
 Sum of electronic and thermal Free Energies=         -188.934876
 
                     E (Thermal)             CV                S
                      KCal/Mol        Cal/Mol-Kelvin    Cal/Mol-Kelvin
 Total                   14.518              7.344             58.382
 Electronic               0.000              0.000              0.000
 Translational            0.889              2.981             37.338
 Rotational               0.889              2.981             20.652
 Vibrational             12.740              1.382              0.393
                       Q            Log10(Q)             Ln(Q)
 Total Bot       0.482488D+02          1.683486          3.876370
 Total V=0       0.897490D+11         10.953030         25.220283
 Vib (Bot)       0.558765D-09         -9.252770        -21.305291
 Vib (V=0)       0.103938D+01          0.016773          0.038621
 Electronic      0.100000D+01          0.000000          0.000000
 Translational   0.118642D+08          7.074239         16.289037
 Rotational      0.727810D+04          3.862018          8.892625
 ***** Axes restored to original set *****
 -------------------------------------------------------------------
 Center     Atomic                   Forces (Hartrees/Bohr)
 Number     Number              X              Y              Z
 -------------------------------------------------------------------
      1        6           0.000372278    0.000000000    0.000172893
      2        8          -0.000005653    0.000000000   -0.000006202
      3        8          -0.000008503    0.000000000   -0.000000305
      4        1          -0.000358121    0.000000000   -0.000166386
 -------------------------------------------------------------------
 Cartesian Forces:  Max     0.000372278 RMS     0.000164459
 -----------------------------------------------------------------------------------------------
                       Internal Coordinate Forces (Hartree/Bohr or radian)
  Cent   Atom   N1       Length/X         N2         Alpha/Y        N3         Beta/Z          J
 -----------------------------------------------------------------------------------------------
      1  C 
      2  O        1  -0.000006(     1)
      3  O        1  -0.000006(     2)      2   0.000014(     4)
      4  H        1   0.000395(     3)      2   0.000000(     5)      3   0.000000(     6)     0
 -----------------------------------------------------------------------------------------------
 Internal  Forces:  Max     0.000394886 RMS     0.000161348

 GradGradGradGradGradGradGradGradGradGradGradGradGradGradGradGradGradGrad
 Berny optimization.
 Search for a local minimum.
 Step number   1 out of a maximum of    2
 All quantities printed in internal units (Hartrees-Bohrs-Radians)
 Second derivative matrix not updated -- analytic derivatives used.
 The second derivative matrix:
                          R1        R2        A1        A2
           R1           1.42013
           R2           0.07222   0.26428
           A1           0.06356  -0.04190   0.49011
           A2           0.00000   0.00000   0.15277   0.30554
 ITU=  0
     Eigenvalues ---    0.20785   0.26557   0.57798   1.42866
 Angle between quadratic step and forces=   6.90 degrees.
 Linear search not attempted -- first point.
 Variable       Old X    -DE/DX   Delta X   Delta X   Delta X     New X
                                 (Linear)    (Quad)   (Total)
    R1        2.37778  -0.00001   0.00000  -0.00010  -0.00010   2.37769
    R2        2.12642   0.00039   0.00000   0.00155   0.00155   2.12797
    A1        2.27209   0.00001   0.00000   0.00020   0.00020   2.27229
    A2        2.00555   0.00000   0.00000  -0.00010  -0.00010   2.00545
         Item               Value     Threshold  Converged?
 Maximum Force            0.000395     0.000450     YES
 RMS     Force            0.000198     0.000300     YES
 Maximum Displacement     0.001553     0.001800     YES
 RMS     Displacement     0.000786     0.001200     YES
 Predicted change in Energy=-3.086481D-07
 Optimization completed.
    -- Stationary point found.
                       ----------------------------
                       !   Optimized Parameters   !
                       ! (Angstroms and Degrees)  !
 ----------------------                            ----------------------
 !      Name          Value   Derivative information (Atomic Units)     !
 ------------------------------------------------------------------------
 !       R1          1.2583   -DE/DX =    0.0                           !
 !       R2          1.1253   -DE/DX =    0.0004                        !
 !       A1        130.1811   -DE/DX =    0.0                           !
 !       A2        114.9094   -DE/DX =    0.0                           !
 ------------------------------------------------------------------------
 GradGradGradGradGradGradGradGradGradGradGradGradGradGradGradGradGradGrad


 ----------------------------------------------------------------------

 Electric dipole moment (input orientation):
 (Debye = 10**-18 statcoulomb cm , SI units = C m)
                  (au)            (Debye)         (10**-30 SI)
   Tot        0.578824D+00      0.147122D+01      0.490748D+01
   x         -0.524979D+00     -0.133436D+01     -0.445096D+01
   y          0.000000D+00      0.000000D+00      0.000000D+00
   z         -0.243792D+00     -0.619658D+00     -0.206696D+01

 Dipole polarizability, Alpha (input orientation).
 (esu units = cm**3 , SI units = C**2 m**2 J**-1)
 Alpha(0;0):
               (au)            (10**-24 esu)      (10**-40 SI)
   iso        0.333988D+02      0.494919D+01      0.550672D+01
   aniso      0.158673D+02      0.235130D+01      0.261617D+01
   xx         0.365407D+02      0.541477D+01      0.602474D+01
   yx         0.000000D+00      0.000000D+00      0.000000D+00
   yy         0.233665D+02      0.346256D+01      0.385261D+01
   zx        -0.221941D+01     -0.328883D+00     -0.365932D+00
   zy         0.000000D+00      0.000000D+00      0.000000D+00
   zz         0.402893D+02      0.597025D+01      0.664280D+01

 ----------------------------------------------------------------------

 Dipole orientation:
     6          0.00000000          0.00000000          0.00000000
     8         -2.15659050          0.00000000         -1.00148769
     8          2.15659082          0.00000000         -1.00148699
     1         -0.00000149          0.00000000          2.12641653

 Electric dipole moment (dipole orientation):
 (Debye = 10**-18 statcoulomb cm , SI units = C m)
                  (au)            (Debye)         (10**-30 SI)
   Tot        0.578824D+00      0.147122D+01      0.490748D+01
   x          0.000000D+00      0.000000D+00      0.000000D+00
   y          0.000000D+00      0.000000D+00      0.000000D+00
   z          0.578824D+00      0.147122D+01      0.490748D+01

 Dipole polarizability, Alpha (dipole orientation).
 (esu units = cm**3 , SI units = C**2 m**2 J**-1)
 Alpha(0;0):
               (au)            (10**-24 esu)      (10**-40 SI)
   iso        0.333988D+02      0.494919D+01      0.550672D+01
   aniso      0.158673D+02      0.235130D+01      0.261617D+01
   xx         0.413199D+02      0.612298D+01      0.681273D+01
   yx         0.000000D+00      0.000000D+00      0.000000D+00
   yy         0.233665D+02      0.346256D+01      0.385261D+01
   zx         0.000000D+00      0.000000D+00      0.000000D+00
   zy         0.000000D+00      0.000000D+00      0.000000D+00
   zz         0.355100D+02      0.526204D+01      0.585481D+01

 ----------------------------------------------------------------------
 1|1|UNPC-DESKTOP-F4NP0R6|Freq|RMP2-FC|Aug-CC-pVTZ|C1H1O2(1-)|GARRETT|2
 2-Jul-2018|1||#N Geom=AllCheck Guess=TCheck SCRF=Check GenChk RMP2(FC)
 /Aug-CC-pVTZ Freq||Formate||-1,1|C|O,1,R1|O,1,R1,2,A1|H,1,R2,2,A2,3,18
 0.,0||R1=1.25826949|R2=1.12525117|A1=130.18114751|A2=114.90939537||Ver
 sion=EM64W-G16RevB.01|State=1-A'|HF=-188.2734183|MP2=-188.9312156|RMSD
 =1.590e-009|RMSF=1.645e-004|ZeroPoint=0.0201526|Thermal=0.0231352|Dipo
 le=-0.5249789,0.,-0.2437922|DipoleDeriv=1.4785211,0.,-0.4735136,0.,-0.
 0269389,0.,-0.4735136,0.,2.2782864,-0.684317,0.,-0.0319403,0.,-0.51986
 75,0.,0.2561157,0.,-1.8603588,-1.260277,0.,0.7425153,0.,-0.5198675,0.,
 0.454459,0.,-1.2843985,-0.5339272,0.,-0.2370614,0.,0.0666739,0.,-0.237
 0611,0.,-0.1335292|Polar=36.5406697,0.,23.3664931,-2.2194116,0.,40.289
 2586|PG=CS [SG(C1H1O2)]|NImag=0||0.63974922,0.,0.20762449,-0.10414014,
 0.,0.81564216,-0.10107413,0.,-0.02893791,0.08668843,0.,-0.07063943,0.,
 0.,0.02401301,-0.02751856,0.,-0.50751042,0.00056565,0.,0.62604500,-0.3
 6614431,0.,0.19633369,0.01764089,0.,0.04657860,0.40207311,0.,-0.070639
 45,0.,0.,0.02401168,0.,0.,0.02401304,0.19491433,0.,-0.24244018,0.06319
 745,0.,-0.07506516,-0.26577734,0.,0.31066019,-0.17253079,0.,-0.0632556
 3,-0.00325520,0.,-0.01962569,-0.05356969,0.,0.00766556,0.22935568,0.,-
 0.06634561,0.,0.,0.02261473,0.,0.,0.02261473,0.,0.,0.02111616,-0.06325
 563,0.,-0.06569157,-0.03482518,0.,-0.04346942,0.02286505,0.,0.00684514
 ,0.07521576,0.,0.10231585||-0.00037228,0.,-0.00017289,0.00000565,0.,0.
 00000620,0.00000850,0.,0.00000030,0.00035812,0.,0.00016639|||@


 ... IT CAN BE VERY DIFFICULT, IN THESE COMPLEX TIMES,
 TO UNDERSTAND JUST HOW SCIENTISTS DO WHAT THEY DO.

                     DON MOSER IN THE FEBRUARY 1979 SMITHSONIAN
 Job cpu time:       0 days  0 hours 25 minutes 22.0 seconds.
 Elapsed time:       0 days  0 hours 25 minutes 15.6 seconds.
 File lengths (MBytes):  RWF=   2790 Int=      0 D2E=      0 Chk=      4 Scr=      1
 Normal termination of Gaussian 16 at Sun Jul 22 22:49:49 2018.
