 Entering Link 1 = C:\G16W\l1.exe PID=     23288.
  
 Copyright (c) 1988-2017, Gaussian, Inc.  All Rights Reserved.
  
 This is part of the Gaussian(R) 16 program.  It is based on
 the Gaussian(R) 09 system (copyright 2009, Gaussian, Inc.),
 the Gaussian(R) 03 system (copyright 2003, Gaussian, Inc.),
 the Gaussian(R) 98 system (copyright 1998, Gaussian, Inc.),
 the Gaussian(R) 94 system (copyright 1995, Gaussian, Inc.),
 the Gaussian 92(TM) system (copyright 1992, Gaussian, Inc.),
 the Gaussian 90(TM) system (copyright 1990, Gaussian, Inc.),
 the Gaussian 88(TM) system (copyright 1988, Gaussian, Inc.),
 the Gaussian 86(TM) system (copyright 1986, Carnegie Mellon
 University), and the Gaussian 82(TM) system (copyright 1983,
 Carnegie Mellon University). Gaussian is a federally registered
 trademark of Gaussian, Inc.
  
 This software contains proprietary and confidential information,
 including trade secrets, belonging to Gaussian, Inc.
  
 This software is provided under written license and may be
 used, copied, transmitted, or stored only in accord with that
 written license.
  
 The following legend is applicable only to US Government
 contracts under FAR:
  
                    RESTRICTED RIGHTS LEGEND
  
 Use, reproduction and disclosure by the US Government is
 subject to restrictions as set forth in subparagraphs (a)
 and (c) of the Commercial Computer Software - Restricted
 Rights clause in FAR 52.227-19.
  
 Gaussian, Inc.
 340 Quinnipiac St., Bldg. 40, Wallingford CT 06492
  
  
 ---------------------------------------------------------------
 Warning -- This program may not be used in any manner that
 competes with the business of Gaussian, Inc. or will provide
 assistance to any competitor of Gaussian, Inc.  The licensee
 of this program is prohibited from giving any competitor of
 Gaussian, Inc. access to this program.  By using this program,
 the user acknowledges that Gaussian, Inc. is engaged in the
 business of creating and licensing software in the field of
 computational chemistry and represents and warrants to the
 licensee that it is not a competitor of Gaussian, Inc. and that
 it will not use this program in any manner prohibited above.
 ---------------------------------------------------------------
  

 Cite this work as:
 Gaussian 16, Revision B.01,
 M. J. Frisch, G. W. Trucks, H. B. Schlegel, G. E. Scuseria, 
 M. A. Robb, J. R. Cheeseman, G. Scalmani, V. Barone, 
 G. A. Petersson, H. Nakatsuji, X. Li, M. Caricato, A. V. Marenich, 
 J. Bloino, B. G. Janesko, R. Gomperts, B. Mennucci, H. P. Hratchian, 
 J. V. Ortiz, A. F. Izmaylov, J. L. Sonnenberg, D. Williams-Young, 
 F. Ding, F. Lipparini, F. Egidi, J. Goings, B. Peng, A. Petrone, 
 T. Henderson, D. Ranasinghe, V. G. Zakrzewski, J. Gao, N. Rega, 
 G. Zheng, W. Liang, M. Hada, M. Ehara, K. Toyota, R. Fukuda, 
 J. Hasegawa, M. Ishida, T. Nakajima, Y. Honda, O. Kitao, H. Nakai, 
 T. Vreven, K. Throssell, J. A. Montgomery, Jr., J. E. Peralta, 
 F. Ogliaro, M. J. Bearpark, J. J. Heyd, E. N. Brothers, K. N. Kudin, 
 V. N. Staroverov, T. A. Keith, R. Kobayashi, J. Normand, 
 K. Raghavachari, A. P. Rendell, J. C. Burant, S. S. Iyengar, 
 J. Tomasi, M. Cossi, J. M. Millam, M. Klene, C. Adamo, R. Cammi, 
 J. W. Ochterski, R. L. Martin, K. Morokuma, O. Farkas, 
 J. B. Foresman, and D. J. Fox, Gaussian, Inc., Wallingford CT, 2016.
 
 ******************************************
 Gaussian 16:  EM64W-G16RevB.01 16-Dec-2017
                23-Jul-2018 
 ******************************************
 %nproc=2
 Will use up to    2 processors via shared memory.
 %mem=4gb
 -----------------------------------------------
 # MP2 Aug-cc-pvTZ opt=(noeigen,calcfc,z-matrix)
 -----------------------------------------------
 1/10=4,11=1,18=40,38=1/1,3;
 2/12=2,17=6,18=5,29=3,40=1/2;
 3/5=16,6=1,7=10,11=9,25=1,30=1,71=2,140=1/1,2,3;
 4//1;
 5/5=2,38=5/2;
 8/6=3,8=1,10=1,19=11,30=-1/1;
 9/15=3,16=-3/6;
 11/6=1,8=1,15=11,17=12,24=-1,27=1,28=-2,29=300,32=6,42=3/1,2,10;
 10/6=2,21=1/2;
 8/6=4,8=1,10=1,19=11,30=-1/11,4;
 10/5=1,20=4/2;
 11/12=2,14=11,16=1,17=2,28=-2,42=3,76=2/2,10,12;
 6/7=2,8=2,9=2,10=2/1;
 7/10=1,12=2,25=1,44=2/1,2,3,16;
 1/10=4,11=1,18=40/3(2);
 2/29=3/2;
 99//99;
 2/29=3/2;
 3/5=16,6=1,7=10,11=9,25=1,30=1,71=1/1,2,3;
 4/5=5,16=3,69=1/1;
 5/5=2,38=5/2;
 8/6=4,10=1/1;
 9/15=2,16=-3/6;
 10/5=1/2;
 7/12=2/1,2,3,16;
 1/11=1,18=40/3(-8);
 2/29=3/2;
 6/7=2,8=2,9=2,10=2/1;
 99/9=10/99;
 -------
 Formate
 -------
 Symbolic Z-matrix:
 Charge = -1 Multiplicity = 1
 C
 O                    1    R
 O                    1    R1       2    A1
 H                    1    R2       2    A2       3     180.     0
       Variables:
  R1                    1.25827                  
  R2                    1.12525                  
  A1                  130.18115                  
  A2                  114.9094                   
       Constants:
  R                     1.35                     
 

 GradGradGradGradGradGradGradGradGradGradGradGradGradGradGradGradGradGrad
 Berny optimization.
 Initialization pass.
                       ----------------------------
                       !    Initial Parameters    !
                       ! (Angstroms and Degrees)  !
 ----------------------                            ----------------------
 !      Name          Value   Derivative information (Atomic Units)     !
 ------------------------------------------------------------------------
 !       R1          1.2583   calculate D2E/DX2 analytically            !
 !       R2          1.1253   calculate D2E/DX2 analytically            !
 !       A1        130.1811   calculate D2E/DX2 analytically            !
 !       A2        114.9094   calculate D2E/DX2 analytically            !
 !        R          1.35     frozen, calculate D2E/DX2 analytically    !
 ------------------------------------------------------------------------
 Trust Radius=3.00D-01 FncErr=1.00D-07 GrdErr=1.00D-07 EigMax=2.50D+02 EigMin=1.00D-04
 Number of steps in this run=     20 maximum allowed number of steps=    100.
 GradGradGradGradGradGradGradGradGradGradGradGradGradGradGradGradGradGrad

 ---------------------------------------------------------------------------------------------------
                            Z-MATRIX (ANGSTROMS AND DEGREES)
   CD    Cent   Atom    N1       Length/X        N2       Alpha/Y        N3        Beta/Z          J
 ---------------------------------------------------------------------------------------------------
      1      1  C 
      2      2  O        1   1.350000(     1)
      3      3  O        1   1.258269(     2)      2  130.181(     4)
      4      4  H        1   1.125251(     3)      2  114.909(     5)      3  180.000(     6)      0
 ---------------------------------------------------------------------------------------------------
                         Z-Matrix orientation:                         
 ---------------------------------------------------------------------
 Center     Atomic      Atomic             Coordinates (Angstroms)
 Number     Number       Type             X           Y           Z
 ---------------------------------------------------------------------
      1          6           0        0.000000    0.000000    0.000000
      2          8           0        0.000000    0.000000    1.350000
      3          8           0        0.961328    0.000000   -0.811843
      4          1           0       -1.020575    0.000000   -0.473938
 ---------------------------------------------------------------------
                    Distance matrix (angstroms):
                    1          2          3          4
     1  C    0.000000
     2  O    1.350000   0.000000
     3  O    1.258269   2.365950   0.000000
     4  H    1.125251   2.090054   2.010502   0.000000
 Stoichiometry    CHO2(1-)
 Framework group  CS[SG(CHO2)]
 Deg. of freedom     5
 Full point group                 CS      NOp   2
 Largest Abelian subgroup         CS      NOp   2
 Largest concise Abelian subgroup C1      NOp   1
                         Standard orientation:                         
 ---------------------------------------------------------------------
 Center     Atomic      Atomic             Coordinates (Angstroms)
 Number     Number       Type             X           Y           Z
 ---------------------------------------------------------------------
      1          6           0        0.000000    0.334440    0.000000
      2          8           0       -1.170624   -0.337973    0.000000
      3          8           0        1.182795   -0.094790    0.000000
      4          1           0       -0.097366    1.455470    0.000000
 ---------------------------------------------------------------------
 Rotational constants (GHZ):         102.9003543          11.2819212          10.1671970
 Standard basis: Aug-CC-pVTZ (5D, 7F)
 There are   129 symmetry adapted cartesian basis functions of A'  symmetry.
 There are    61 symmetry adapted cartesian basis functions of A"  symmetry.
 There are   106 symmetry adapted basis functions of A'  symmetry.
 There are    55 symmetry adapted basis functions of A"  symmetry.
   161 basis functions,   243 primitive gaussians,   190 cartesian basis functions
    12 alpha electrons       12 beta electrons
       nuclear repulsion energy        60.2693325865 Hartrees.
 NAtoms=    4 NActive=    4 NUniq=    4 SFac= 1.00D+00 NAtFMM=   60 NAOKFM=F Big=F
 Integral buffers will be    131072 words long.
 Raffenetti 1 integral format.
 Two-electron integral symmetry is turned on.
 One-electron integrals computed using PRISM.
 NBasis=   161 RedAO= T EigKep=  1.03D-04  NBF=   106    55
 NBsUse=   161 1.00D-06 EigRej= -1.00D+00 NBFU=   106    55
 ExpMin= 2.53D-02 ExpMax= 1.53D+04 ExpMxC= 5.22D+02 IAcc=3 IRadAn=         5 AccDes= 0.00D+00
 Harris functional with IExCor=  205 and IRadAn=       5 diagonalized for initial guess.
 HarFok:  IExCor=  205 AccDes= 0.00D+00 IRadAn=         5 IDoV= 1 UseB2=F ITyADJ=14
 ICtDFT=  3500011 ScaDFX=  1.000000  1.000000  1.000000  1.000000
 FoFCou: FMM=F IPFlag=           0 FMFlag=      100000 FMFlg1=           0
         NFxFlg=           0 DoJE=T BraDBF=F KetDBF=T FulRan=T
         wScrn=  0.000000 ICntrl=       500 IOpCl=  0 I1Cent=   200000004 NGrid=           0
         NMat0=    1 NMatS0=      1 NMatT0=    0 NMatD0=    1 NMtDS0=    0 NMtDT0=    0
 Petite list used in FoFCou.
 Initial guess orbital symmetries:
       Occupied  (A') (A') (A') (A') (A') (A') (A') (A') (A") (A")
                 (A') (A')
       Virtual   (A") (A') (A') (A') (A") (A') (A') (A') (A') (A")
                 (A") (A') (A') (A') (A") (A') (A') (A') (A') (A")
                 (A') (A") (A') (A') (A") (A') (A') (A') (A') (A")
                 (A') (A') (A") (A") (A') (A") (A") (A') (A') (A')
                 (A') (A') (A") (A") (A') (A") (A') (A') (A') (A")
                 (A') (A') (A") (A') (A') (A") (A") (A') (A') (A")
                 (A') (A') (A') (A") (A') (A') (A') (A") (A') (A")
                 (A") (A") (A') (A') (A") (A') (A') (A') (A') (A")
                 (A') (A") (A") (A') (A') (A') (A') (A") (A") (A')
                 (A') (A') (A") (A') (A") (A') (A') (A") (A") (A')
                 (A') (A") (A") (A') (A') (A') (A') (A") (A') (A')
                 (A") (A") (A') (A") (A') (A') (A") (A') (A') (A')
                 (A') (A') (A") (A') (A') (A") (A') (A") (A") (A')
                 (A') (A") (A") (A") (A') (A') (A") (A') (A") (A')
                 (A") (A') (A') (A') (A') (A') (A') (A') (A')
 The electronic state of the initial guess is 1-A'.
 Keep R1 ints in memory in symmetry-blocked form, NReq=128070129.
 Requested convergence on RMS density matrix=1.00D-08 within 128 cycles.
 Requested convergence on MAX density matrix=1.00D-06.
 Requested convergence on             energy=1.00D-06.
 No special actions if energy rises.
 SCF Done:  E(RHF) =  -188.258159234     A.U. after   13 cycles
            NFock= 13  Conv=0.49D-08     -V/T= 2.0031
 ExpMin= 2.53D-02 ExpMax= 1.53D+04 ExpMxC= 5.22D+02 IAcc=3 IRadAn=         5 AccDes= 0.00D+00
 HarFok:  IExCor=  205 AccDes= 0.00D+00 IRadAn=         5 IDoV=-2 UseB2=F ITyADJ=14
 ICtDFT= 12500011 ScaDFX=  1.000000  1.000000  1.000000  1.000000
 Range of M.O.s used for correlation:     4   161
 NBasis=   161 NAE=    12 NBE=    12 NFC=     3 NFV=     0
 NROrb=    158 NOA=     9 NOB=     9 NVA=   149 NVB=   149

 **** Warning!!: The largest alpha MO coefficient is  0.28645793D+02

 Disk-based method using ON**2 memory for  9 occupieds at a time.
 Permanent disk used for amplitudes=     3924660 words.
 Estimated scratch disk usage=   113146432 words.
 Actual    scratch disk usage=   109232192 words.
 JobTyp=1 Pass  1:  I=   4 to  12 NPSUse=  2 ParTrn=T ParDer=T DoDerP=T.
 (rs|ai) integrals will be sorted in core.
 Spin components of T(2) and E(2):
     alpha-alpha T2 =       0.2582908691D-01 E2=     -0.8710231336D-01
     alpha-beta  T2 =       0.1351422880D+00 E2=     -0.4911054527D+00
     beta-beta   T2 =       0.2582908691D-01 E2=     -0.8710231336D-01
 ANorm=    0.1089403718D+01
 E2 =    -0.6653100794D+00 EUMP2 =    -0.18892346931320D+03
 G2DrvN: will do     5 centers at a time, making    1 passes.
 Calling FoFCou, ICntrl=  3107 FMM=F I1Cent=   0 AccDes= 0.00D+00.
 End of G2Drv F.D. properties file   721 does not exist.
 End of G2Drv F.D. properties file   722 does not exist.
 End of G2Drv F.D. properties file   788 does not exist.
          IDoAtm=1111
          Differentiating once with respect to electric field.
                with respect to dipole field.
          Differentiating once with respect to nuclear coordinates.
 Keep R1 ints in memory in symmetry-blocked form, NReq=128071153.
          There are    15 degrees of freedom in the 1st order CPHF.  IDoFFX=6 NUNeed=    15.
     12 vectors produced by pass  0 Test12= 1.19D-14 6.67D-09 XBig12= 9.63D+00 1.52D+00.
 AX will form    12 AO Fock derivatives at one time.
     12 vectors produced by pass  1 Test12= 1.19D-14 6.67D-09 XBig12= 1.33D+00 3.15D-01.
     12 vectors produced by pass  2 Test12= 1.19D-14 6.67D-09 XBig12= 4.01D-02 3.88D-02.
     12 vectors produced by pass  3 Test12= 1.19D-14 6.67D-09 XBig12= 1.01D-03 6.51D-03.
     12 vectors produced by pass  4 Test12= 1.19D-14 6.67D-09 XBig12= 1.82D-05 9.98D-04.
     12 vectors produced by pass  5 Test12= 1.19D-14 6.67D-09 XBig12= 2.78D-07 1.71D-04.
     12 vectors produced by pass  6 Test12= 1.19D-14 6.67D-09 XBig12= 2.50D-09 1.46D-05.
      9 vectors produced by pass  7 Test12= 1.19D-14 6.67D-09 XBig12= 2.49D-11 1.15D-06.
      4 vectors produced by pass  8 Test12= 1.19D-14 6.67D-09 XBig12= 2.27D-13 1.00D-07.
      1 vectors produced by pass  9 Test12= 1.19D-14 6.67D-09 XBig12= 1.95D-15 1.02D-08.
 InvSVY:  IOpt=1 It=  1 EMax= 8.88D-16
 Solved reduced A of dimension    98 with    12 vectors.
 End of Minotr F.D. properties file   721 does not exist.
 End of Minotr F.D. properties file   722 does not exist.
 End of Minotr F.D. properties file   788 does not exist.
 MDV=   536870912.
 Form MO integral derivatives with frozen-active canonical formalism.
 Discarding MO integrals.
 Reordered first order wavefunction length =      6393888
 In DefCFB: NBatch=  1 ICI= 12 ICA=149 LFMax= 50
            Large arrays: LIAPS=   218779680 LIARS=   130792200 words.
 Semi-Direct transformation.
 ModeAB=           2 MOrb=            12 LenV=     536063371
 LASXX=     23759367 LTotXX=    23759367 LenRXX=    23759367
 LTotAB=    24195042 MaxLAS=    35056140 LenRXY=    35056140
 NonZer=    47518734 LenScr=    72043008 LnRSAI=           0
 LnScr1=           0 LExtra=           0 Total=    130858515
 MaxDsk=          -1 SrtSym=           F ITran=            4
 JobTyp=0 Pass  1:  I=   1 to  12.
 (rs|ai) integrals will be sorted in core.
 Spin components of T(2) and E(2):
     alpha-alpha T2 =       0.2582908691D-01 E2=     -0.8710231336D-01
     alpha-beta  T2 =       0.1351422880D+00 E2=     -0.4911054527D+00
     beta-beta   T2 =       0.2582908691D-01 E2=     -0.8710231336D-01
 ANorm=    0.1540649514D+01
 E2 =    -0.6653100794D+00 EUMP2 =    -0.18892346931320D+03
          IDoAtm=1111
          Differentiating once with respect to electric field.
                with respect to dipole field.
          Differentiating once with respect to nuclear coordinates.
          There are     1 degrees of freedom in the 1st order CPHF.  IDoFFX=0 NUNeed=     1.
 LinEq1:  Iter=  0 NonCon=     1 RMS=6.99D-03 Max=1.08D-01 NDo=     1
 LinEq1:  Iter=  1 NonCon=     1 RMS=1.83D-03 Max=1.89D-02 NDo=     1
 LinEq1:  Iter=  2 NonCon=     1 RMS=7.13D-04 Max=8.21D-03 NDo=     1
 LinEq1:  Iter=  3 NonCon=     1 RMS=2.85D-04 Max=2.58D-03 NDo=     1
 LinEq1:  Iter=  4 NonCon=     1 RMS=1.09D-04 Max=1.84D-03 NDo=     1
 LinEq1:  Iter=  5 NonCon=     1 RMS=4.05D-05 Max=3.55D-04 NDo=     1
 LinEq1:  Iter=  6 NonCon=     1 RMS=2.16D-05 Max=3.29D-04 NDo=     1
 LinEq1:  Iter=  7 NonCon=     1 RMS=4.58D-06 Max=3.81D-05 NDo=     1
 LinEq1:  Iter=  8 NonCon=     1 RMS=1.15D-06 Max=1.35D-05 NDo=     1
 LinEq1:  Iter=  9 NonCon=     1 RMS=2.37D-07 Max=2.11D-06 NDo=     1
 LinEq1:  Iter= 10 NonCon=     1 RMS=3.96D-08 Max=2.70D-07 NDo=     1
 LinEq1:  Iter= 11 NonCon=     1 RMS=6.58D-09 Max=7.81D-08 NDo=     1
 LinEq1:  Iter= 12 NonCon=     1 RMS=1.01D-09 Max=9.21D-09 NDo=     1
 LinEq1:  Iter= 13 NonCon=     1 RMS=1.41D-10 Max=1.40D-09 NDo=     1
 LinEq1:  Iter= 14 NonCon=     0 RMS=1.93D-11 Max=1.59D-10 NDo=     1
 Linear equations converged to 1.000D-10 1.000D-09 after    14 iterations.
 End of Minotr F.D. properties file   721 does not exist.
 End of Minotr F.D. properties file   722 does not exist.
 End of Minotr F.D. properties file   788 does not exist.
 Symmetrizing basis deriv contribution to polar:
 IMax=3 JMax=2 DiffMx= 0.00D+00
 G2DrvN: will do     5 centers at a time, making    1 passes.
 Calling FoFCou, ICntrl=  3107 FMM=F I1Cent=   0 AccDes= 0.00D+00.
 End of G2Drv F.D. properties file   721 does not exist.
 End of G2Drv F.D. properties file   722 does not exist.
 End of G2Drv F.D. properties file   788 does not exist.
 R2 and R3 integrals will be kept in memory, NReq=   332743010.
 DD1Dir will call FoFMem   1 times, MxPair=       156
 NAB=    78 NAA=     0 NBB=     0.
 Discarding MO integrals.

 **********************************************************************

            Population analysis using the SCF Density.

 **********************************************************************

 Orbital symmetries:
       Occupied  (A') (A') (A') (A') (A') (A') (A') (A') (A") (A')
                 (A') (A")
       Virtual   (A') (A') (A") (A') (A') (A') (A') (A") (A") (A')
                 (A') (A") (A') (A') (A") (A') (A') (A') (A') (A")
                 (A") (A') (A') (A") (A') (A') (A') (A') (A') (A")
                 (A') (A') (A") (A') (A") (A") (A') (A') (A") (A')
                 (A") (A') (A') (A') (A") (A') (A") (A') (A') (A")
                 (A') (A") (A') (A') (A') (A") (A") (A') (A') (A")
                 (A') (A') (A') (A") (A') (A') (A') (A") (A') (A")
                 (A") (A") (A') (A') (A") (A') (A') (A') (A') (A")
                 (A') (A") (A") (A') (A') (A') (A') (A") (A") (A')
                 (A') (A') (A") (A") (A') (A') (A") (A') (A") (A')
                 (A') (A') (A") (A") (A') (A') (A') (A") (A') (A')
                 (A") (A') (A") (A') (A") (A") (A') (A') (A') (A')
                 (A') (A') (A") (A') (A') (A") (A') (A") (A") (A')
                 (A') (A") (A") (A') (A") (A') (A") (A') (A') (A")
                 (A") (A') (A') (A') (A') (A') (A') (A') (A')
 The electronic state is 1-A'.
 Alpha  occ. eigenvalues --  -20.30796 -20.28847 -11.14256  -1.14211  -1.03261
 Alpha  occ. eigenvalues --   -0.56745  -0.42331  -0.37609  -0.32801  -0.20990
 Alpha  occ. eigenvalues --   -0.19300  -0.18372
 Alpha virt. eigenvalues --    0.14278   0.21246   0.21467   0.21781   0.27857
 Alpha virt. eigenvalues --    0.31831   0.32738   0.33944   0.35906   0.36886
 Alpha virt. eigenvalues --    0.39205   0.41486   0.41628   0.45439   0.47962
 Alpha virt. eigenvalues --    0.49737   0.51412   0.54071   0.57636   0.58931
 Alpha virt. eigenvalues --    0.61661   0.69129   0.70108   0.72586   0.76458
 Alpha virt. eigenvalues --    0.80673   0.83467   0.90442   0.92564   0.96583
 Alpha virt. eigenvalues --    1.00215   1.00946   1.04951   1.05005   1.05910
 Alpha virt. eigenvalues --    1.09205   1.10853   1.11466   1.11812   1.15628
 Alpha virt. eigenvalues --    1.20990   1.21126   1.22059   1.23458   1.26025
 Alpha virt. eigenvalues --    1.26783   1.31886   1.38204   1.41991   1.43825
 Alpha virt. eigenvalues --    1.45679   1.55853   1.57604   1.62782   1.64989
 Alpha virt. eigenvalues --    1.70816   1.75107   1.75646   1.80434   1.84362
 Alpha virt. eigenvalues --    1.90862   1.99245   2.06252   2.11621   2.19919
 Alpha virt. eigenvalues --    2.23079   2.39716   2.39905   2.43813   2.48857
 Alpha virt. eigenvalues --    2.56782   2.60356   2.61980   2.62429   2.63882
 Alpha virt. eigenvalues --    2.67237   2.69409   2.71382   2.76978   2.78238
 Alpha virt. eigenvalues --    2.83696   2.85675   2.87085   2.91411   3.00590
 Alpha virt. eigenvalues --    3.06006   3.12398   3.14056   3.16006   3.27358
 Alpha virt. eigenvalues --    3.28553   3.39167   3.44206   3.53950   3.57913
 Alpha virt. eigenvalues --    3.75253   3.79087   3.79388   3.99356   4.05780
 Alpha virt. eigenvalues --    4.16941   4.17949   4.22561   4.27082   4.29282
 Alpha virt. eigenvalues --    4.40427   4.50226   4.51747   4.63975   4.74984
 Alpha virt. eigenvalues --    4.85375   5.09212   5.10266   5.18220   5.24571
 Alpha virt. eigenvalues --    5.33565   5.39419   5.43382   5.75759   6.00928
 Alpha virt. eigenvalues --    6.48763   6.53991   6.83497   6.84762   6.86577
 Alpha virt. eigenvalues --    6.86890   7.03675   7.06853   7.09693   7.15465
 Alpha virt. eigenvalues --    7.24882   7.24900   7.31265   7.40930   7.41768
 Alpha virt. eigenvalues --    7.47560   7.51184   7.54198   7.70592   7.75940
 Alpha virt. eigenvalues --    7.83145   7.87469   7.94972   7.96561   8.07214
 Alpha virt. eigenvalues --    8.12483  12.78025  14.54406  16.23535
          Condensed to atoms (all electrons):
               1          2          3          4
     1  C    4.881971   0.386829   0.429170   0.288537
     2  O    0.386829   8.474171  -0.089302  -0.027731
     3  O    0.429170  -0.089302   8.360701  -0.041569
     4  H    0.288537  -0.027731  -0.041569   0.391289
 Mulliken charges:
               1
     1  C    0.013492
     2  O   -0.743967
     3  O   -0.659000
     4  H    0.389474
 Sum of Mulliken charges =  -1.00000
 Mulliken charges with hydrogens summed into heavy atoms:
               1
     1  C    0.402966
     2  O   -0.743967
     3  O   -0.659000
 APT charges:
               1
     1  C    1.157462
     2  O   -1.014602
     3  O   -0.979773
     4  H   -0.163087
 Sum of APT charges =  -1.00000
 APT charges with hydrogens summed into heavy atoms:
               1
     1  C    0.994375
     2  O   -1.014602
     3  O   -0.979773
 Electronic spatial extent (au):  <R**2>=            144.3962
 Charge=             -1.0000 electrons
 Dipole moment (field-independent basis, Debye):
    X=              0.5041    Y=              2.1346    Z=              0.0000  Tot=              2.1933
 Quadrupole moment (field-independent basis, Debye-Ang):
   XX=            -30.4167   YY=            -20.0732   ZZ=            -19.1348
   XY=             -1.1158   XZ=              0.0000   YZ=              0.0000
 Traceless Quadrupole moment (field-independent basis, Debye-Ang):
   XX=             -7.2085   YY=              3.1350   ZZ=              4.0734
   XY=             -1.1158   XZ=              0.0000   YZ=              0.0000
 Octapole moment (field-independent basis, Debye-Ang**2):
  XXX=              1.8661  YYY=              0.0907  ZZZ=              0.0000  XYY=              0.7829
  XXY=              1.1207  XXZ=              0.0000  XZZ=              0.6742  YZZ=             -0.0598
  YYZ=              0.0000  XYZ=              0.0000
 Hexadecapole moment (field-independent basis, Debye-Ang**3):
 XXXX=           -147.4891 YYYY=            -43.0049 ZZZZ=            -20.3613 XXXY=             -6.5648
 XXXZ=              0.0000 YYYX=             -5.6363 YYYZ=              0.0000 ZZZX=              0.0000
 ZZZY=              0.0000 XXYY=            -30.0053 XXZZ=            -26.4622 YYZZ=            -10.5414
 XXYZ=              0.0000 YYXZ=              0.0000 ZZXY=             -1.9378
 N-N= 6.026933258650D+01 E-N=-5.723369205210D+02  KE= 1.876723089457D+02
 Symmetry A'   KE= 1.800891599732D+02
 Symmetry A"   KE= 7.583148972503D+00
  Exact polarizability:  43.807   1.567  35.450   0.000   0.000  24.147
 Approx polarizability:  28.589   0.820  23.181   0.000   0.000  18.995
 Calling FoFJK, ICntrl=  10100127 FMM=F ISym2X=1 I1Cent= 0 IOpClX= 0 NMat=1 NMatS=1 NMatT=0.
 ***** Axes restored to original set *****
 -------------------------------------------------------------------
 Center     Atomic                   Forces (Hartrees/Bohr)
 Number     Number              X              Y              Z
 -------------------------------------------------------------------
      1        6           0.005290758    0.000000000    0.062529740
      2        8          -0.000223233    0.000000000   -0.080996229
      3        8          -0.007471349    0.000000000    0.011842843
      4        1           0.002403824    0.000000000    0.006623646
 -------------------------------------------------------------------
 Cartesian Forces:  Max     0.080996229 RMS     0.029922294
 -----------------------------------------------------------------------------------------------
                       Internal Coordinate Forces (Hartree/Bohr or radian)
  Cent   Atom   N1       Length/X         N2         Alpha/Y        N3         Beta/Z          J
 -----------------------------------------------------------------------------------------------
      1  C 
      2  O        1  -0.080996(     1)
      3  O        1  -0.013349(     2)      2  -0.010052(     4)
      4  H        1  -0.004970(     3)      2  -0.010622(     5)      3   0.000000(     6)     0
 -----------------------------------------------------------------------------------------------
 Internal  Forces:  Max     0.080996229 RMS     0.034100713

 GradGradGradGradGradGradGradGradGradGradGradGradGradGradGradGradGradGrad
 Berny optimization.
 Search for a local minimum.
 Step number   1 out of a maximum of   20
 All quantities printed in internal units (Hartrees-Bohrs-Radians)
 Second derivative matrix not updated -- analytic derivatives used.
 The second derivative matrix:
                          R1        R2        A1        A2         R
           R1           0.60964
           R2           0.03438   0.26598
           A1          -0.01694  -0.03578   0.45868
           A2          -0.06600  -0.00496   0.15460   0.28509
           R            0.07102   0.02630   0.05165   0.05650   0.33497
 ITU=  0
     Eigenvalues ---    0.18505   0.26384   0.52509   0.645421000.00000
 RFO step:  Lambda=-9.33954701D-04 EMin= 1.85049223D-01
 Linear search not attempted -- first point.
 Variable       Old X    -DE/DX   Delta X   Delta X   Delta X     New X
                                 (Linear)    (Quad)   (Total)
    R1        2.37778  -0.01335   0.00000  -0.02518  -0.02518   2.35260
    R2        2.12642  -0.00497   0.00000  -0.01764  -0.01764   2.10878
    A1        2.27209  -0.01005   0.00000  -0.01176  -0.01176   2.26033
    A2        2.00555  -0.01062   0.00000  -0.03689  -0.03689   1.96865
    R         2.55113  -0.08100   0.00000   0.00000   0.00000   2.55113
         Item               Value     Threshold  Converged?
 Maximum Force            0.013349     0.000450     NO 
 RMS     Force            0.010207     0.000300     NO 
 Maximum Displacement     0.036895     0.001800     NO 
 RMS     Displacement     0.022113     0.001200     NO 
 Predicted change in Energy=-4.681219D-04
 GradGradGradGradGradGradGradGradGradGradGradGradGradGradGradGradGradGrad

 ---------------------------------------------------------------------------------------------------
                            Z-MATRIX (ANGSTROMS AND DEGREES)
   CD    Cent   Atom    N1       Length/X        N2       Alpha/Y        N3        Beta/Z          J
 ---------------------------------------------------------------------------------------------------
      1      1  C 
      2      2  O        1   1.350000(     1)
      3      3  O        1   1.244942(     2)      2  129.507(     4)
      4      4  H        1   1.115917(     3)      2  112.795(     5)      3  180.000(     6)      0
 ---------------------------------------------------------------------------------------------------
                         Z-Matrix orientation:                         
 ---------------------------------------------------------------------
 Center     Atomic      Atomic             Coordinates (Angstroms)
 Number     Number       Type             X           Y           Z
 ---------------------------------------------------------------------
      1          6           0        0.000000    0.000000    0.000000
      2          8           0        0.000000    0.000000    1.350000
      3          8           0        0.960528    0.000000   -0.792003
      4          1           0       -1.028757    0.000000   -0.432354
 ---------------------------------------------------------------------
                    Distance matrix (angstroms):
                    1          2          3          4
     1  C    0.000000
     2  O    1.350000   0.000000
     3  O    1.244942   2.347507   0.000000
     4  H    1.115917   2.057943   2.021534   0.000000
 Stoichiometry    CHO2(1-)
 Framework group  CS[SG(CHO2)]
 Deg. of freedom     5
 Full point group                 CS      NOp   2
 Largest Abelian subgroup         CS      NOp   2
 Largest concise Abelian subgroup C1      NOp   1
                         Standard orientation:                         
 ---------------------------------------------------------------------
 Center     Atomic      Atomic             Coordinates (Angstroms)
 Number     Number       Type             X           Y           Z
 ---------------------------------------------------------------------
      1          6           0        0.000000    0.338319    0.000000
      2          8           0       -1.154670   -0.361136    0.000000
      3          8           0        1.175072   -0.072883    0.000000
      4          1           0       -0.163217    1.442236    0.000000
 ---------------------------------------------------------------------
 Rotational constants (GHZ):         102.5411984          11.4587204          10.3069453
 Standard basis: Aug-CC-pVTZ (5D, 7F)
 There are   129 symmetry adapted cartesian basis functions of A'  symmetry.
 There are    61 symmetry adapted cartesian basis functions of A"  symmetry.
 There are   106 symmetry adapted basis functions of A'  symmetry.
 There are    55 symmetry adapted basis functions of A"  symmetry.
   161 basis functions,   243 primitive gaussians,   190 cartesian basis functions
    12 alpha electrons       12 beta electrons
       nuclear repulsion energy        60.6416100155 Hartrees.
 NAtoms=    4 NActive=    4 NUniq=    4 SFac= 1.00D+00 NAtFMM=   60 NAOKFM=F Big=F
 Integral buffers will be    131072 words long.
 Raffenetti 1 integral format.
 Two-electron integral symmetry is turned on.
 One-electron integrals computed using PRISM.
 NBasis=   161 RedAO= T EigKep=  9.88D-05  NBF=   106    55
 NBsUse=   161 1.00D-06 EigRej= -1.00D+00 NBFU=   106    55
 Initial guess from the checkpoint file:  "C:\Users\Garrett\Downloads\NanoclusterOutput\Gau-23288.chk"
 B after Tr=     0.000000    0.000000    0.000000
         Rot=    0.999941    0.000000    0.000000   -0.010842 Ang=  -1.24 deg.
 Initial guess orbital symmetries:
       Occupied  (A') (A') (A') (A') (A') (A') (A') (A') (A") (A')
                 (A') (A")
       Virtual   (A') (A') (A") (A') (A') (A') (A') (A") (A") (A')
                 (A') (A") (A') (A') (A") (A') (A') (A') (A') (A")
                 (A") (A') (A') (A") (A') (A') (A') (A') (A') (A")
                 (A') (A') (A") (A') (A") (A") (A') (A') (A") (A')
                 (A") (A') (A') (A') (A") (A') (A") (A') (A') (A")
                 (A') (A") (A') (A') (A') (A") (A") (A') (A') (A")
                 (A') (A') (A') (A") (A') (A') (A') (A") (A') (A")
                 (A") (A") (A') (A') (A") (A') (A') (A') (A') (A")
                 (A') (A") (A") (A') (A') (A') (A') (A") (A") (A')
                 (A') (A') (A") (A") (A') (A') (A") (A') (A") (A')
                 (A') (A') (A") (A") (A') (A') (A') (A") (A') (A')
                 (A") (A') (A") (A') (A") (A") (A') (A') (A') (A')
                 (A') (A') (A") (A') (A') (A") (A') (A") (A") (A')
                 (A') (A") (A") (A') (A") (A') (A") (A') (A') (A")
                 (A") (A') (A') (A') (A') (A') (A') (A') (A')
 ExpMin= 2.53D-02 ExpMax= 1.53D+04 ExpMxC= 5.22D+02 IAcc=3 IRadAn=         5 AccDes= 0.00D+00
 Harris functional with IExCor=  205 and IRadAn=       5 diagonalized for initial guess.
 HarFok:  IExCor=  205 AccDes= 0.00D+00 IRadAn=         5 IDoV= 1 UseB2=F ITyADJ=14
 ICtDFT=  3500011 ScaDFX=  1.000000  1.000000  1.000000  1.000000
 FoFCou: FMM=F IPFlag=           0 FMFlag=      100000 FMFlg1=           0
         NFxFlg=           0 DoJE=T BraDBF=F KetDBF=T FulRan=T
         wScrn=  0.000000 ICntrl=       500 IOpCl=  0 I1Cent=   200000004 NGrid=           0
         NMat0=    1 NMatS0=      1 NMatT0=    0 NMatD0=    1 NMtDS0=    0 NMtDT0=    0
 Petite list used in FoFCou.
 Keep R1 ints in memory in symmetry-blocked form, NReq=128070129.
 Requested convergence on RMS density matrix=1.00D-08 within 128 cycles.
 Requested convergence on MAX density matrix=1.00D-06.
 Requested convergence on             energy=1.00D-06.
 No special actions if energy rises.
 SCF Done:  E(RHF) =  -188.259935881     A.U. after   11 cycles
            NFock= 11  Conv=0.39D-08     -V/T= 2.0028
 ExpMin= 2.53D-02 ExpMax= 1.53D+04 ExpMxC= 5.22D+02 IAcc=3 IRadAn=         5 AccDes= 0.00D+00
 HarFok:  IExCor=  205 AccDes= 0.00D+00 IRadAn=         5 IDoV=-2 UseB2=F ITyADJ=14
 ICtDFT= 12500011 ScaDFX=  1.000000  1.000000  1.000000  1.000000
 Range of M.O.s used for correlation:     4   161
 NBasis=   161 NAE=    12 NBE=    12 NFC=     3 NFV=     0
 NROrb=    158 NOA=     9 NOB=     9 NVA=   149 NVB=   149

 **** Warning!!: The largest alpha MO coefficient is  0.28289417D+02

 Fully direct method using O(ONN) memory.
 JobTyp=1 Pass  1:  I=   4 to  12 NPSUse=  2 ParTrn=T ParDer=T DoDerP=T.
 Spin components of T(2) and E(2):
     alpha-alpha T2 =       0.2564266322D-01 E2=     -0.8693921472D-01
     alpha-beta  T2 =       0.1341336955D+00 E2=     -0.4901154763D+00
     beta-beta   T2 =       0.2564266322D-01 E2=     -0.8693921472D-01
 ANorm=    0.1088769499D+01
 E2 =    -0.6639939057D+00 EUMP2 =    -0.18892392978655D+03
          IDoAtm=1111
          Differentiating once with respect to electric field.
                with respect to dipole field.
          Differentiating once with respect to nuclear coordinates.
 Keep R1 ints in memory in symmetry-blocked form, NReq=128071153.
          There are     1 degrees of freedom in the 1st order CPHF.  IDoFFX=0 NUNeed=     1.
 LinEq1:  Iter=  0 NonCon=     1 RMS=6.92D-03 Max=1.06D-01 NDo=     1
 AX will form     1 AO Fock derivatives at one time.
 LinEq1:  Iter=  1 NonCon=     1 RMS=1.79D-03 Max=1.93D-02 NDo=     1
 LinEq1:  Iter=  2 NonCon=     1 RMS=7.00D-04 Max=7.87D-03 NDo=     1
 LinEq1:  Iter=  3 NonCon=     1 RMS=2.81D-04 Max=2.47D-03 NDo=     1
 LinEq1:  Iter=  4 NonCon=     1 RMS=1.12D-04 Max=1.98D-03 NDo=     1
 LinEq1:  Iter=  5 NonCon=     1 RMS=4.31D-05 Max=3.63D-04 NDo=     1
 LinEq1:  Iter=  6 NonCon=     1 RMS=2.16D-05 Max=3.08D-04 NDo=     1
 LinEq1:  Iter=  7 NonCon=     1 RMS=4.49D-06 Max=3.75D-05 NDo=     1
 LinEq1:  Iter=  8 NonCon=     1 RMS=1.11D-06 Max=1.30D-05 NDo=     1
 LinEq1:  Iter=  9 NonCon=     1 RMS=2.27D-07 Max=2.02D-06 NDo=     1
 LinEq1:  Iter= 10 NonCon=     1 RMS=3.78D-08 Max=2.51D-07 NDo=     1
 LinEq1:  Iter= 11 NonCon=     1 RMS=6.24D-09 Max=6.96D-08 NDo=     1
 LinEq1:  Iter= 12 NonCon=     1 RMS=9.73D-10 Max=9.32D-09 NDo=     1
 LinEq1:  Iter= 13 NonCon=     1 RMS=1.36D-10 Max=1.40D-09 NDo=     1
 LinEq1:  Iter= 14 NonCon=     0 RMS=1.80D-11 Max=1.41D-10 NDo=     1
 Linear equations converged to 1.000D-10 1.000D-09 after    14 iterations.
 End of Minotr F.D. properties file   721 does not exist.
 End of Minotr F.D. properties file   722 does not exist.
 End of Minotr F.D. properties file   788 does not exist.
 Calling FoFJK, ICntrl=  10002127 FMM=F ISym2X=1 I1Cent= 0 IOpClX= 0 NMat=1 NMatS=1 NMatT=0.
 ***** Axes restored to original set *****
 -------------------------------------------------------------------
 Center     Atomic                   Forces (Hartrees/Bohr)
 Number     Number              X              Y              Z
 -------------------------------------------------------------------
      1        6          -0.000499654    0.000000000    0.076425461
      2        8           0.000015919    0.000000000   -0.075901871
      3        8           0.000619259    0.000000000   -0.000477061
      4        1          -0.000135524    0.000000000   -0.000046530
 -------------------------------------------------------------------
 Cartesian Forces:  Max     0.076425461 RMS     0.031095051
 -----------------------------------------------------------------------------------------------
                       Internal Coordinate Forces (Hartree/Bohr or radian)
  Cent   Atom   N1       Length/X         N2         Alpha/Y        N3         Beta/Z          J
 -----------------------------------------------------------------------------------------------
      1  C 
      2  O        1  -0.075902(     1)
      3  O        1   0.000781(     2)      2  -0.000061(     4)
      4  H        1   0.000143(     3)      2  -0.000020(     5)      3   0.000000(     6)     0
 -----------------------------------------------------------------------------------------------
 Internal  Forces:  Max     0.075901871 RMS     0.030988517

 GradGradGradGradGradGradGradGradGradGradGradGradGradGradGradGradGradGrad
 Berny optimization.
 Search for a local minimum.
 Step number   2 out of a maximum of   20
 All quantities printed in internal units (Hartrees-Bohrs-Radians)
 Update second derivatives using D2CorN and points    1    2
 DE= -4.60D-04 DEPred=-4.68D-04 R= 9.84D-01
 TightC=F SS=  1.41D+00  RLast= 4.94D-02 DXNew= 5.0454D-01 1.4834D-01
 Trust test= 9.84D-01 RLast= 4.94D-02 DXMaxT set to 3.00D-01
 The second derivative matrix:
                          R1        R2        A1        A2         R
           R1           0.61793
           R2           0.03810   0.26713
           A1          -0.01526  -0.03557   0.45844
           A2          -0.05985  -0.00370   0.15426   0.28531
           R            0.07179   0.02684   0.05201   0.05763   0.33497
 ITU=  1  0
     Eigenvalues ---    0.18602   0.26500   0.52964   0.648151000.00000
 RFO step:  Lambda=-5.80938046D-07 EMin= 1.86019299D-01
 Quartic linear search produced a step of -0.02121.
 Variable       Old X    -DE/DX   Delta X   Delta X   Delta X     New X
                                 (Linear)    (Quad)   (Total)
    R1        2.35260   0.00078   0.00053   0.00071   0.00125   2.35385
    R2        2.10878   0.00014   0.00037  -0.00005   0.00033   2.10911
    A1        2.26033  -0.00006   0.00025  -0.00041  -0.00016   2.26017
    A2        1.96865  -0.00002   0.00078  -0.00052   0.00027   1.96892
    R         2.55113  -0.07590   0.00000   0.00000   0.00000   2.55113
         Item               Value     Threshold  Converged?
 Maximum Force            0.000781     0.000450     NO 
 RMS     Force            0.000398     0.000300     NO 
 Maximum Displacement     0.001248     0.001800     YES
 RMS     Displacement     0.000594     0.001200     YES
 Predicted change in Energy=-5.209932D-07
 GradGradGradGradGradGradGradGradGradGradGradGradGradGradGradGradGradGrad

 ---------------------------------------------------------------------------------------------------
                            Z-MATRIX (ANGSTROMS AND DEGREES)
   CD    Cent   Atom    N1       Length/X        N2       Alpha/Y        N3        Beta/Z          J
 ---------------------------------------------------------------------------------------------------
      1      1  C 
      2      2  O        1   1.350000(     1)
      3      3  O        1   1.245603(     2)      2  129.498(     4)
      4      4  H        1   1.116091(     3)      2  112.811(     5)      3  180.000(     6)      0
 ---------------------------------------------------------------------------------------------------
                         Z-Matrix orientation:                         
 ---------------------------------------------------------------------
 Center     Atomic      Atomic             Coordinates (Angstroms)
 Number     Number       Type             X           Y           Z
 ---------------------------------------------------------------------
      1          6           0        0.000000    0.000000    0.000000
      2          8           0        0.000000    0.000000    1.350000
      3          8           0        0.961162    0.000000   -0.792272
      4          1           0       -1.028801    0.000000   -0.432696
 ---------------------------------------------------------------------
                    Distance matrix (angstroms):
                    1          2          3          4
     1  C    0.000000
     2  O    1.350000   0.000000
     3  O    1.245603   2.348012   0.000000
     4  H    1.116091   2.058261   2.022189   0.000000
 Stoichiometry    CHO2(1-)
 Framework group  CS[SG(CHO2)]
 Deg. of freedom     5
 Full point group                 CS      NOp   2
 Largest Abelian subgroup         CS      NOp   2
 Largest concise Abelian subgroup C1      NOp   1
                         Standard orientation:                         
 ---------------------------------------------------------------------
 Center     Atomic      Atomic             Coordinates (Angstroms)
 Number     Number       Type             X           Y           Z
 ---------------------------------------------------------------------
      1          6           0        0.000000    0.338450    0.000000
      2          8           0       -1.155096   -0.360302    0.000000
      3          8           0        1.175380   -0.073871    0.000000
      4          1           0       -0.162275    1.442680    0.000000
 ---------------------------------------------------------------------
 Rotational constants (GHZ):         102.4693241          11.4538976          10.3023170
 Standard basis: Aug-CC-pVTZ (5D, 7F)
 There are   129 symmetry adapted cartesian basis functions of A'  symmetry.
 There are    61 symmetry adapted cartesian basis functions of A"  symmetry.
 There are   106 symmetry adapted basis functions of A'  symmetry.
 There are    55 symmetry adapted basis functions of A"  symmetry.
   161 basis functions,   243 primitive gaussians,   190 cartesian basis functions
    12 alpha electrons       12 beta electrons
       nuclear repulsion energy        60.6262478839 Hartrees.
 NAtoms=    4 NActive=    4 NUniq=    4 SFac= 1.00D+00 NAtFMM=   60 NAOKFM=F Big=F
 Integral buffers will be    131072 words long.
 Raffenetti 1 integral format.
 Two-electron integral symmetry is turned on.
 One-electron integrals computed using PRISM.
 NBasis=   161 RedAO= T EigKep=  9.89D-05  NBF=   106    55
 NBsUse=   161 1.00D-06 EigRej= -1.00D+00 NBFU=   106    55
 Initial guess from the checkpoint file:  "C:\Users\Garrett\Downloads\NanoclusterOutput\Gau-23288.chk"
 B after Tr=     0.000000    0.000000    0.000000
         Rot=    1.000000    0.000000    0.000000    0.000380 Ang=   0.04 deg.
 Initial guess orbital symmetries:
       Occupied  (A') (A') (A') (A') (A') (A') (A') (A') (A") (A')
                 (A') (A")
       Virtual   (A') (A') (A") (A') (A') (A') (A') (A") (A") (A')
                 (A') (A") (A') (A') (A") (A') (A') (A') (A') (A")
                 (A") (A') (A') (A") (A') (A') (A') (A') (A') (A")
                 (A') (A') (A') (A") (A") (A") (A') (A') (A") (A')
                 (A") (A') (A') (A') (A") (A') (A") (A') (A') (A")
                 (A') (A") (A') (A') (A') (A") (A") (A') (A') (A")
                 (A') (A') (A') (A") (A') (A') (A") (A') (A') (A")
                 (A") (A") (A') (A') (A") (A') (A') (A') (A') (A")
                 (A') (A") (A") (A') (A') (A') (A') (A") (A") (A')
                 (A') (A') (A") (A") (A') (A') (A") (A') (A") (A')
                 (A') (A') (A") (A") (A') (A') (A') (A") (A') (A')
                 (A") (A") (A') (A') (A") (A") (A') (A') (A') (A')
                 (A') (A') (A") (A') (A') (A") (A') (A") (A") (A')
                 (A') (A") (A") (A') (A") (A') (A") (A') (A') (A")
                 (A") (A') (A') (A') (A') (A') (A') (A') (A')
 Keep R1 ints in memory in symmetry-blocked form, NReq=128070129.
 Requested convergence on RMS density matrix=1.00D-08 within 128 cycles.
 Requested convergence on MAX density matrix=1.00D-06.
 Requested convergence on             energy=1.00D-06.
 No special actions if energy rises.
 SCF Done:  E(RHF) =  -188.259872470     A.U. after    8 cycles
            NFock=  8  Conv=0.95D-08     -V/T= 2.0028
 ExpMin= 2.53D-02 ExpMax= 1.53D+04 ExpMxC= 5.22D+02 IAcc=3 IRadAn=         5 AccDes= 0.00D+00
 HarFok:  IExCor=  205 AccDes= 0.00D+00 IRadAn=         5 IDoV=-2 UseB2=F ITyADJ=14
 ICtDFT= 12500011 ScaDFX=  1.000000  1.000000  1.000000  1.000000
 Range of M.O.s used for correlation:     4   161
 NBasis=   161 NAE=    12 NBE=    12 NFC=     3 NFV=     0
 NROrb=    158 NOA=     9 NOB=     9 NVA=   149 NVB=   149

 **** Warning!!: The largest alpha MO coefficient is  0.28241462D+02

 Fully direct method using O(ONN) memory.
 JobTyp=1 Pass  1:  I=   4 to  12 NPSUse=  2 ParTrn=T ParDer=T DoDerP=T.
 Spin components of T(2) and E(2):
     alpha-alpha T2 =       0.2565152710D-01 E2=     -0.8694745925D-01
     alpha-beta  T2 =       0.1341800113D+00 E2=     -0.4901628594D+00
     beta-beta   T2 =       0.2565152710D-01 E2=     -0.8694745925D-01
 ANorm=    0.1088798910D+01
 E2 =    -0.6640577779D+00 EUMP2 =    -0.18892393024789D+03
          IDoAtm=1111
          Differentiating once with respect to electric field.
                with respect to dipole field.
          Differentiating once with respect to nuclear coordinates.
 Keep R1 ints in memory in symmetry-blocked form, NReq=128071153.
          There are     1 degrees of freedom in the 1st order CPHF.  IDoFFX=0 NUNeed=     1.
 LinEq1:  Iter=  0 NonCon=     1 RMS=6.92D-03 Max=1.06D-01 NDo=     1
 AX will form     1 AO Fock derivatives at one time.
 LinEq1:  Iter=  1 NonCon=     1 RMS=1.79D-03 Max=1.93D-02 NDo=     1
 LinEq1:  Iter=  2 NonCon=     1 RMS=7.01D-04 Max=7.88D-03 NDo=     1
 LinEq1:  Iter=  3 NonCon=     1 RMS=2.81D-04 Max=2.48D-03 NDo=     1
 LinEq1:  Iter=  4 NonCon=     1 RMS=1.12D-04 Max=1.98D-03 NDo=     1
 LinEq1:  Iter=  5 NonCon=     1 RMS=4.30D-05 Max=3.62D-04 NDo=     1
 LinEq1:  Iter=  6 NonCon=     1 RMS=2.16D-05 Max=3.09D-04 NDo=     1
 LinEq1:  Iter=  7 NonCon=     1 RMS=4.50D-06 Max=3.76D-05 NDo=     1
 LinEq1:  Iter=  8 NonCon=     1 RMS=1.11D-06 Max=1.30D-05 NDo=     1
 LinEq1:  Iter=  9 NonCon=     1 RMS=2.27D-07 Max=2.02D-06 NDo=     1
 LinEq1:  Iter= 10 NonCon=     1 RMS=3.79D-08 Max=2.51D-07 NDo=     1
 LinEq1:  Iter= 11 NonCon=     1 RMS=6.26D-09 Max=6.98D-08 NDo=     1
 LinEq1:  Iter= 12 NonCon=     1 RMS=9.75D-10 Max=9.32D-09 NDo=     1
 LinEq1:  Iter= 13 NonCon=     1 RMS=1.36D-10 Max=1.40D-09 NDo=     1
 LinEq1:  Iter= 14 NonCon=     0 RMS=1.80D-11 Max=1.41D-10 NDo=     1
 Linear equations converged to 1.000D-10 1.000D-09 after    14 iterations.
 End of Minotr F.D. properties file   721 does not exist.
 End of Minotr F.D. properties file   722 does not exist.
 End of Minotr F.D. properties file   788 does not exist.
 Calling FoFJK, ICntrl=  10002127 FMM=F ISym2X=1 I1Cent= 0 IOpClX= 0 NMat=1 NMatS=1 NMatT=0.
 ***** Axes restored to original set *****
 -------------------------------------------------------------------
 Center     Atomic                   Forces (Hartrees/Bohr)
 Number     Number              X              Y              Z
 -------------------------------------------------------------------
      1        6           0.000031085    0.000000000    0.075986045
      2        8           0.000003773    0.000000000   -0.076011244
      3        8          -0.000032120    0.000000000    0.000028968
      4        1          -0.000002738    0.000000000   -0.000003770
 -------------------------------------------------------------------
 Cartesian Forces:  Max     0.076011244 RMS     0.031026321
 -----------------------------------------------------------------------------------------------
                       Internal Coordinate Forces (Hartree/Bohr or radian)
  Cent   Atom   N1       Length/X         N2         Alpha/Y        N3         Beta/Z          J
 -----------------------------------------------------------------------------------------------
      1  C 
      2  O        1  -0.076011(     1)
      3  O        1  -0.000043(     2)      2  -0.000005(     4)
      4  H        1   0.000004(     3)      2   0.000005(     5)      3   0.000000(     6)     0
 -----------------------------------------------------------------------------------------------
 Internal  Forces:  Max     0.076011244 RMS     0.031031465

 GradGradGradGradGradGradGradGradGradGradGradGradGradGradGradGradGradGrad
 Berny optimization.
 Search for a local minimum.
 Step number   3 out of a maximum of   20
 All quantities printed in internal units (Hartrees-Bohrs-Radians)
 Update second derivatives using D2CorN and points    1    2    3
 DE= -4.61D-07 DEPred=-5.21D-07 R= 8.85D-01
 Trust test= 8.85D-01 RLast= 1.33D-03 DXMaxT set to 3.00D-01
 The second derivative matrix:
                          R1        R2        A1        A2         R
           R1           0.65626
           R2           0.04312   0.26684
           A1          -0.01550  -0.03534   0.45753
           A2          -0.05570  -0.00461   0.15366   0.28247
           R            0.07325   0.02739   0.05205   0.05842   0.33497
 ITU=  0  1  0
     Eigenvalues ---    0.18571   0.26347   0.53461   0.679311000.00000
 RFO step:  Lambda= 0.00000000D+00 EMin= 1.85713903D-01
 Quartic linear search produced a step of -0.05439.
 Variable       Old X    -DE/DX   Delta X   Delta X   Delta X     New X
                                 (Linear)    (Quad)   (Total)
    R1        2.35385  -0.00004  -0.00007  -0.00001  -0.00008   2.35377
    R2        2.10911   0.00000  -0.00002   0.00004   0.00002   2.10912
    A1        2.26017   0.00000   0.00001  -0.00002  -0.00001   2.26016
    A2        1.96892   0.00001  -0.00001   0.00002   0.00000   1.96892
    R         2.55113  -0.07601   0.00000   0.00000   0.00000   2.55113
         Item               Value     Threshold  Converged?
 Maximum Force            0.000043     0.000450     YES
 RMS     Force            0.000022     0.000300     YES
 Maximum Displacement     0.000075     0.001800     YES
 RMS     Displacement     0.000035     0.001200     YES
 Predicted change in Energy=-1.516471D-09
 Optimization completed.
    -- Stationary point found.
                       ----------------------------
                       !   Optimized Parameters   !
                       ! (Angstroms and Degrees)  !
 ----------------------                            ----------------------
 !      Name          Value   Derivative information (Atomic Units)     !
 ------------------------------------------------------------------------
 !       R1          1.2456   -DE/DX =    0.0                           !
 !       R2          1.1161   -DE/DX =    0.0                           !
 !       A1        129.4983   -DE/DX =    0.0                           !
 !       A2        112.8108   -DE/DX =    0.0                           !
 !        R          1.35     -DE/DX =   -0.076                         !
 ------------------------------------------------------------------------
 GradGradGradGradGradGradGradGradGradGradGradGradGradGradGradGradGradGrad

 ---------------------------------------------------------------------------------------------------
                            Z-MATRIX (ANGSTROMS AND DEGREES)
   CD    Cent   Atom    N1       Length/X        N2       Alpha/Y        N3        Beta/Z          J
 ---------------------------------------------------------------------------------------------------
      1      1  C 
      2      2  O        1   1.350000(     1)
      3      3  O        1   1.245603(     2)      2  129.498(     4)
      4      4  H        1   1.116091(     3)      2  112.811(     5)      3  180.000(     6)      0
 ---------------------------------------------------------------------------------------------------
                         Z-Matrix orientation:                         
 ---------------------------------------------------------------------
 Center     Atomic      Atomic             Coordinates (Angstroms)
 Number     Number       Type             X           Y           Z
 ---------------------------------------------------------------------
      1          6           0        0.000000    0.000000    0.000000
      2          8           0        0.000000    0.000000    1.350000
      3          8           0        0.961162    0.000000   -0.792272
      4          1           0       -1.028801    0.000000   -0.432696
 ---------------------------------------------------------------------
                    Distance matrix (angstroms):
                    1          2          3          4
     1  C    0.000000
     2  O    1.350000   0.000000
     3  O    1.245603   2.348012   0.000000
     4  H    1.116091   2.058261   2.022189   0.000000
 Stoichiometry    CHO2(1-)
 Framework group  CS[SG(CHO2)]
 Deg. of freedom     5
 Full point group                 CS      NOp   2
 Largest Abelian subgroup         CS      NOp   2
 Largest concise Abelian subgroup C1      NOp   1
                         Standard orientation:                         
 ---------------------------------------------------------------------
 Center     Atomic      Atomic             Coordinates (Angstroms)
 Number     Number       Type             X           Y           Z
 ---------------------------------------------------------------------
      1          6           0        0.000000    0.338450    0.000000
      2          8           0       -1.155096   -0.360302    0.000000
      3          8           0        1.175380   -0.073871    0.000000
      4          1           0       -0.162275    1.442680    0.000000
 ---------------------------------------------------------------------
 Rotational constants (GHZ):         102.4693241          11.4538976          10.3023170

 **********************************************************************

            Population analysis using the SCF Density.

 **********************************************************************

 Orbital symmetries:
       Occupied  (A') (A') (A') (A') (A') (A') (A') (A') (A") (A')
                 (A') (A")
       Virtual   (A') (A') (A") (A') (A') (A') (A') (A") (A") (A')
                 (A') (A") (A') (A') (A") (A') (A') (A') (A') (A")
                 (A") (A') (A') (A") (A') (A') (A') (A') (A') (A")
                 (A') (A') (A') (A") (A") (A") (A') (A') (A") (A')
                 (A") (A') (A') (A') (A") (A') (A") (A') (A') (A")
                 (A') (A") (A') (A') (A') (A") (A") (A') (A') (A")
                 (A') (A') (A') (A") (A') (A') (A") (A') (A') (A")
                 (A") (A") (A') (A') (A") (A') (A') (A') (A') (A")
                 (A') (A") (A") (A') (A') (A') (A') (A") (A") (A')
                 (A') (A') (A") (A") (A') (A') (A") (A') (A") (A')
                 (A') (A') (A") (A") (A') (A') (A') (A") (A') (A')
                 (A") (A") (A') (A') (A") (A") (A') (A') (A') (A')
                 (A') (A') (A") (A') (A') (A") (A') (A") (A") (A')
                 (A') (A") (A") (A') (A") (A') (A") (A') (A') (A")
                 (A") (A') (A') (A') (A') (A') (A') (A') (A')
 The electronic state is 1-A'.
 Alpha  occ. eigenvalues --  -20.30821 -20.28388 -11.13846  -1.14849  -1.03067
 Alpha  occ. eigenvalues --   -0.56861  -0.42676  -0.37623  -0.33082  -0.20891
 Alpha  occ. eigenvalues --   -0.19131  -0.18196
 Alpha virt. eigenvalues --    0.14273   0.21222   0.21443   0.21793   0.27861
 Alpha virt. eigenvalues --    0.31831   0.32761   0.33912   0.36024   0.36809
 Alpha virt. eigenvalues --    0.39274   0.41555   0.41745   0.45444   0.48152
 Alpha virt. eigenvalues --    0.49701   0.51610   0.54005   0.57718   0.58996
 Alpha virt. eigenvalues --    0.61657   0.69090   0.70166   0.72680   0.76968
 Alpha virt. eigenvalues --    0.80558   0.84049   0.90886   0.92676   0.96638
 Alpha virt. eigenvalues --    1.00595   1.01003   1.05018   1.05170   1.05958
 Alpha virt. eigenvalues --    1.09137   1.10873   1.11656   1.12008   1.15503
 Alpha virt. eigenvalues --    1.21037   1.21214   1.22313   1.23902   1.26403
 Alpha virt. eigenvalues --    1.27286   1.31757   1.38398   1.41549   1.44125
 Alpha virt. eigenvalues --    1.46271   1.55974   1.57585   1.62828   1.65136
 Alpha virt. eigenvalues --    1.71036   1.75021   1.75960   1.80794   1.85362
 Alpha virt. eigenvalues --    1.90783   1.99173   2.06678   2.12151   2.21362
 Alpha virt. eigenvalues --    2.24397   2.40335   2.40394   2.43824   2.48880
 Alpha virt. eigenvalues --    2.56943   2.60645   2.62467   2.62745   2.64034
 Alpha virt. eigenvalues --    2.67792   2.69961   2.71601   2.77561   2.79101
 Alpha virt. eigenvalues --    2.84054   2.85426   2.88393   2.89891   3.01092
 Alpha virt. eigenvalues --    3.06510   3.12120   3.14403   3.15487   3.26746
 Alpha virt. eigenvalues --    3.29792   3.39466   3.44268   3.54434   3.58253
 Alpha virt. eigenvalues --    3.75209   3.78790   3.79627   4.00735   4.06957
 Alpha virt. eigenvalues --    4.18168   4.20752   4.22820   4.28477   4.29017
 Alpha virt. eigenvalues --    4.41871   4.50715   4.52795   4.64146   4.78203
 Alpha virt. eigenvalues --    4.86404   5.09602   5.12750   5.19359   5.29240
 Alpha virt. eigenvalues --    5.35750   5.39839   5.46576   5.78494   6.04782
 Alpha virt. eigenvalues --    6.49459   6.53663   6.83751   6.84756   6.86984
 Alpha virt. eigenvalues --    6.87112   7.04397   7.07101   7.09687   7.16418
 Alpha virt. eigenvalues --    7.25719   7.25780   7.32850   7.41780   7.42227
 Alpha virt. eigenvalues --    7.47731   7.51933   7.53695   7.71104   7.76344
 Alpha virt. eigenvalues --    7.83090   7.88855   7.95986   7.97185   8.09409
 Alpha virt. eigenvalues --    8.14074  12.80771  14.78676  16.36648
          Condensed to atoms (all electrons):
               1          2          3          4
     1  C    4.895933   0.382807   0.440327   0.279630
     2  O    0.382807   8.492127  -0.093268  -0.028078
     3  O    0.440327  -0.093268   8.347690  -0.042371
     4  H    0.279630  -0.028078  -0.042371   0.386155
 Mulliken charges:
               1
     1  C    0.001302
     2  O   -0.753588
     3  O   -0.652378
     4  H    0.404663
 Sum of Mulliken charges =  -1.00000
 Mulliken charges with hydrogens summed into heavy atoms:
               1
     1  C    0.405965
     2  O   -0.753588
     3  O   -0.652378
 Electronic spatial extent (au):  <R**2>=            143.0494
 Charge=             -1.0000 electrons
 Dipole moment (field-independent basis, Debye):
    X=              0.5538    Y=              2.1792    Z=              0.0000  Tot=              2.2484
 Quadrupole moment (field-independent basis, Debye-Ang):
   XX=            -30.2419   YY=            -20.0903   ZZ=            -19.0964
   XY=             -1.3812   XZ=              0.0000   YZ=              0.0000
 Traceless Quadrupole moment (field-independent basis, Debye-Ang):
   XX=             -7.0990   YY=              3.0526   ZZ=              4.0465
   XY=             -1.3812   XZ=              0.0000   YZ=              0.0000
 Octapole moment (field-independent basis, Debye-Ang**2):
  XXX=              2.1084  YYY=              0.1959  ZZZ=              0.0000  XYY=              0.8434
  XXY=              1.1500  XXZ=              0.0000  XZZ=              0.7837  YZZ=             -0.0157
  YYZ=              0.0000  XYZ=              0.0000
 Hexadecapole moment (field-independent basis, Debye-Ang**3):
 XXXX=           -145.2346 YYYY=            -43.3529 ZZZZ=            -20.3004 XXXY=             -7.5805
 XXXZ=              0.0000 YYYX=             -6.5855 YYYZ=              0.0000 ZZZX=              0.0000
 ZZZY=              0.0000 XXYY=            -29.6894 XXZZ=            -26.1012 YYZZ=            -10.5691
 XXYZ=              0.0000 YYXZ=              0.0000 ZZXY=             -2.2069
 N-N= 6.062624788388D+01 E-N=-5.731145795439D+02  KE= 1.877309429292D+02
 Symmetry A'   KE= 1.801443367314D+02
 Symmetry A"   KE= 7.586606197860D+00
 1|1|UNPC-DESKTOP-F4NP0R6|POpt|RMP2-FC|Aug-CC-pVTZ|C1H1O2(1-)|GARRETT|2
 3-Jul-2018|1||# MP2 Aug-cc-pvTZ opt=(noeigen,calcfc,z-matrix)||Formate
 ||-1,1|C|O,1,R|O,1,R1,2,A1|H,1,R2,2,A2,3,180.,0||R1=1.24560292|R2=1.11
 609054|A1=129.49827344|A2=112.81078076|R=1.35||Version=EM64W-G16RevB.0
 1|State=1-A'|HF=-188.2598725|MP2=-188.9239302|RMSD=9.469e-009|RMSF=3.1
 03e-002|Dipole=-0.4735807,0.,-0.5361546|PG=CS [SG(C1H1O2)]||@


 LET US LEARN TO DREAM, GENTLEMEN, THEN PERHAPS WE SHALL
 DISCOVER THE TRUTH;  BUT LET US BEWARE OF PUBLISHING
 OUR DREAMS ABROAD BEFORE THEY HAVE BEEN SCRUTINIZED
 BY OUR VIGILANT INTELLECT ... LET US ALWAYS ALLOW
 THE FRUIT TO HANG UNTIL IT IS RIPE.  UNRIPE FRUIT
 BRINGS EVEN THE GROWER BUT LITTLE PROFIT; IT DAMAGES
 THE HEALTH OF THOSE WHO CONSUME IT; IT ENDANGERS
 PARTICULARLY THE YOUTH WHO CANNOT YET DISTINGUISH
 BETWEEN RIPE AND UNRIPE FRUIT.

                                  -- KEKULE, 1890
 Job cpu time:       0 days  0 hours 28 minutes 51.0 seconds.
 Elapsed time:       0 days  0 hours 28 minutes 19.3 seconds.
 File lengths (MBytes):  RWF=   2790 Int=      0 D2E=      0 Chk=      4 Scr=      1
 Normal termination of Gaussian 16 at Mon Jul 23 14:39:33 2018.
