 Entering Link 1 = C:\G16W\l1.exe PID=      7388.
  
 Copyright (c) 1988-2017, Gaussian, Inc.  All Rights Reserved.
  
 This is part of the Gaussian(R) 16 program.  It is based on
 the Gaussian(R) 09 system (copyright 2009, Gaussian, Inc.),
 the Gaussian(R) 03 system (copyright 2003, Gaussian, Inc.),
 the Gaussian(R) 98 system (copyright 1998, Gaussian, Inc.),
 the Gaussian(R) 94 system (copyright 1995, Gaussian, Inc.),
 the Gaussian 92(TM) system (copyright 1992, Gaussian, Inc.),
 the Gaussian 90(TM) system (copyright 1990, Gaussian, Inc.),
 the Gaussian 88(TM) system (copyright 1988, Gaussian, Inc.),
 the Gaussian 86(TM) system (copyright 1986, Carnegie Mellon
 University), and the Gaussian 82(TM) system (copyright 1983,
 Carnegie Mellon University). Gaussian is a federally registered
 trademark of Gaussian, Inc.
  
 This software contains proprietary and confidential information,
 including trade secrets, belonging to Gaussian, Inc.
  
 This software is provided under written license and may be
 used, copied, transmitted, or stored only in accord with that
 written license.
  
 The following legend is applicable only to US Government
 contracts under FAR:
  
                    RESTRICTED RIGHTS LEGEND
  
 Use, reproduction and disclosure by the US Government is
 subject to restrictions as set forth in subparagraphs (a)
 and (c) of the Commercial Computer Software - Restricted
 Rights clause in FAR 52.227-19.
  
 Gaussian, Inc.
 340 Quinnipiac St., Bldg. 40, Wallingford CT 06492
  
  
 ---------------------------------------------------------------
 Warning -- This program may not be used in any manner that
 competes with the business of Gaussian, Inc. or will provide
 assistance to any competitor of Gaussian, Inc.  The licensee
 of this program is prohibited from giving any competitor of
 Gaussian, Inc. access to this program.  By using this program,
 the user acknowledges that Gaussian, Inc. is engaged in the
 business of creating and licensing software in the field of
 computational chemistry and represents and warrants to the
 licensee that it is not a competitor of Gaussian, Inc. and that
 it will not use this program in any manner prohibited above.
 ---------------------------------------------------------------
  

 Cite this work as:
 Gaussian 16, Revision B.01,
 M. J. Frisch, G. W. Trucks, H. B. Schlegel, G. E. Scuseria, 
 M. A. Robb, J. R. Cheeseman, G. Scalmani, V. Barone, 
 G. A. Petersson, H. Nakatsuji, X. Li, M. Caricato, A. V. Marenich, 
 J. Bloino, B. G. Janesko, R. Gomperts, B. Mennucci, H. P. Hratchian, 
 J. V. Ortiz, A. F. Izmaylov, J. L. Sonnenberg, D. Williams-Young, 
 F. Ding, F. Lipparini, F. Egidi, J. Goings, B. Peng, A. Petrone, 
 T. Henderson, D. Ranasinghe, V. G. Zakrzewski, J. Gao, N. Rega, 
 G. Zheng, W. Liang, M. Hada, M. Ehara, K. Toyota, R. Fukuda, 
 J. Hasegawa, M. Ishida, T. Nakajima, Y. Honda, O. Kitao, H. Nakai, 
 T. Vreven, K. Throssell, J. A. Montgomery, Jr., J. E. Peralta, 
 F. Ogliaro, M. J. Bearpark, J. J. Heyd, E. N. Brothers, K. N. Kudin, 
 V. N. Staroverov, T. A. Keith, R. Kobayashi, J. Normand, 
 K. Raghavachari, A. P. Rendell, J. C. Burant, S. S. Iyengar, 
 J. Tomasi, M. Cossi, J. M. Millam, M. Klene, C. Adamo, R. Cammi, 
 J. W. Ochterski, R. L. Martin, K. Morokuma, O. Farkas, 
 J. B. Foresman, and D. J. Fox, Gaussian, Inc., Wallingford CT, 2016.
 
 ******************************************
 Gaussian 16:  EM64W-G16RevB.01 16-Dec-2017
                23-Jul-2018 
 ******************************************
 %nproc=2
 Will use up to    2 processors via shared memory.
 %mem=4gb
 -----------------------------------------------
 # MP2 Aug-cc-pvTZ opt=(noeigen,calcfc,z-matrix)
 -----------------------------------------------
 1/10=4,11=1,18=40,38=1/1,3;
 2/12=2,17=6,18=5,29=3,40=1/2;
 3/5=16,6=1,7=10,11=9,25=1,30=1,71=2,140=1/1,2,3;
 4//1;
 5/5=2,38=5/2;
 8/6=3,8=1,10=1,19=11,30=-1/1;
 9/15=3,16=-3/6;
 11/6=1,8=1,15=11,17=12,24=-1,27=1,28=-2,29=300,32=6,42=3/1,2,10;
 10/6=2,21=1/2;
 8/6=4,8=1,10=1,19=11,30=-1/11,4;
 10/5=1,20=4/2;
 11/12=2,14=11,16=1,17=2,28=-2,42=3,76=2/2,10,12;
 6/7=2,8=2,9=2,10=2/1;
 7/10=1,12=2,25=1,44=2/1,2,3,16;
 1/10=4,11=1,18=40/3(2);
 2/29=3/2;
 99//99;
 2/29=3/2;
 3/5=16,6=1,7=10,11=9,25=1,30=1,71=1/1,2,3;
 4/5=5,16=3,69=1/1;
 5/5=2,38=5/2;
 8/6=4,10=1/1;
 9/15=2,16=-3/6;
 10/5=1/2;
 7/12=2/1,2,3,16;
 1/11=1,18=40/3(-8);
 2/29=3/2;
 6/7=2,8=2,9=2,10=2/1;
 99/9=10/99;
 -------
 Formate
 -------
 Symbolic Z-matrix:
 Charge = -1 Multiplicity = 1
 C
 O                    1    R1
 O                    1    R1       2    A1
 H                    1    R2       2    A2       3     180.     0
       Variables:
  R1                    1.25827                  
  A1                  130.18115                  
  A2                  114.9094                   
       Constants:
  R2                    0.975                    
 

 GradGradGradGradGradGradGradGradGradGradGradGradGradGradGradGradGradGrad
 Berny optimization.
 Initialization pass.
                       ----------------------------
                       !    Initial Parameters    !
                       ! (Angstroms and Degrees)  !
 ----------------------                            ----------------------
 !      Name          Value   Derivative information (Atomic Units)     !
 ------------------------------------------------------------------------
 !       R1          1.2583   calculate D2E/DX2 analytically            !
 !       A1        130.1811   calculate D2E/DX2 analytically            !
 !       A2        114.9094   calculate D2E/DX2 analytically            !
 !       R2          0.975    frozen, calculate D2E/DX2 analytically    !
 ------------------------------------------------------------------------
 Trust Radius=3.00D-01 FncErr=1.00D-07 GrdErr=1.00D-07 EigMax=2.50D+02 EigMin=1.00D-04
 Number of steps in this run=     20 maximum allowed number of steps=    100.
 GradGradGradGradGradGradGradGradGradGradGradGradGradGradGradGradGradGrad

 ---------------------------------------------------------------------------------------------------
                            Z-MATRIX (ANGSTROMS AND DEGREES)
   CD    Cent   Atom    N1       Length/X        N2       Alpha/Y        N3        Beta/Z          J
 ---------------------------------------------------------------------------------------------------
      1      1  C 
      2      2  O        1   1.258269(     1)
      3      3  O        1   1.258269(     2)      2  130.181(     4)
      4      4  H        1   0.975000(     3)      2  114.909(     5)      3  180.000(     6)      0
 ---------------------------------------------------------------------------------------------------
                         Z-Matrix orientation:                         
 ---------------------------------------------------------------------
 Center     Atomic      Atomic             Coordinates (Angstroms)
 Number     Number       Type             X           Y           Z
 ---------------------------------------------------------------------
      1          6           0        0.000000    0.000000    0.000000
      2          8           0        0.000000    0.000000    1.258269
      3          8           0        0.961328    0.000000   -0.811843
      4          1           0       -0.884301    0.000000   -0.410655
 ---------------------------------------------------------------------
                    Distance matrix (angstroms):
                    1          2          3          4
     1  C    0.000000
     2  O    1.258269   0.000000
     3  O    1.258269   2.282437   0.000000
     4  H    0.975000   1.888729   1.888729   0.000000
 Stoichiometry    CHO2(1-)
 Framework group  CS[SG(CHO2)]
 Deg. of freedom     5
 Full point group                 CS      NOp   2
 Largest Abelian subgroup         CS      NOp   2
 Largest concise Abelian subgroup C1      NOp   1
                         Standard orientation:                         
 ---------------------------------------------------------------------
 Center     Atomic      Atomic             Coordinates (Angstroms)
 Number     Number       Type             X           Y           Z
 ---------------------------------------------------------------------
      1          6           0        0.000000    0.326279    0.000000
      2          8           0       -1.141219   -0.203685    0.000000
      3          8           0        1.141219   -0.203685    0.000000
      4          1           0       -0.000001    1.301279    0.000000
 ---------------------------------------------------------------------
 Rotational constants (GHZ):         118.2358410          12.1301890          11.0015093
 Standard basis: Aug-CC-pVTZ (5D, 7F)
 There are   129 symmetry adapted cartesian basis functions of A'  symmetry.
 There are    61 symmetry adapted cartesian basis functions of A"  symmetry.
 There are   106 symmetry adapted basis functions of A'  symmetry.
 There are    55 symmetry adapted basis functions of A"  symmetry.
   161 basis functions,   243 primitive gaussians,   190 cartesian basis functions
    12 alpha electrons       12 beta electrons
       nuclear repulsion energy        62.9512458983 Hartrees.
 NAtoms=    4 NActive=    4 NUniq=    4 SFac= 1.00D+00 NAtFMM=   60 NAOKFM=F Big=F
 Integral buffers will be    131072 words long.
 Raffenetti 1 integral format.
 Two-electron integral symmetry is turned on.
 One-electron integrals computed using PRISM.
 NBasis=   161 RedAO= T EigKep=  6.68D-05  NBF=   106    55
 NBsUse=   161 1.00D-06 EigRej= -1.00D+00 NBFU=   106    55
 ExpMin= 2.53D-02 ExpMax= 1.53D+04 ExpMxC= 5.22D+02 IAcc=3 IRadAn=         5 AccDes= 0.00D+00
 Harris functional with IExCor=  205 and IRadAn=       5 diagonalized for initial guess.
 HarFok:  IExCor=  205 AccDes= 0.00D+00 IRadAn=         5 IDoV= 1 UseB2=F ITyADJ=14
 ICtDFT=  3500011 ScaDFX=  1.000000  1.000000  1.000000  1.000000
 FoFCou: FMM=F IPFlag=           0 FMFlag=      100000 FMFlg1=           0
         NFxFlg=           0 DoJE=T BraDBF=F KetDBF=T FulRan=T
         wScrn=  0.000000 ICntrl=       500 IOpCl=  0 I1Cent=   200000004 NGrid=           0
         NMat0=    1 NMatS0=      1 NMatT0=    0 NMatD0=    1 NMtDS0=    0 NMtDT0=    0
 Petite list used in FoFCou.
 Initial guess orbital symmetries:
       Occupied  (A') (A') (A') (A') (A') (A') (A') (A') (A") (A")
                 (A') (A')
       Virtual   (A") (A') (A') (A') (A") (A') (A') (A') (A') (A")
                 (A") (A') (A') (A') (A") (A') (A') (A') (A") (A')
                 (A") (A') (A') (A') (A') (A") (A') (A') (A') (A")
                 (A') (A') (A") (A") (A') (A") (A") (A') (A') (A')
                 (A') (A') (A") (A") (A') (A") (A') (A') (A') (A')
                 (A") (A') (A") (A') (A') (A") (A') (A") (A') (A")
                 (A') (A') (A') (A') (A") (A') (A") (A') (A") (A')
                 (A") (A") (A') (A") (A') (A') (A') (A') (A") (A')
                 (A') (A") (A') (A") (A') (A') (A') (A") (A") (A')
                 (A') (A') (A") (A') (A") (A') (A') (A") (A") (A")
                 (A') (A') (A") (A') (A') (A') (A') (A') (A') (A")
                 (A") (A") (A") (A') (A') (A') (A') (A") (A') (A')
                 (A') (A') (A") (A') (A") (A') (A') (A") (A") (A')
                 (A") (A") (A') (A') (A') (A") (A") (A') (A") (A")
                 (A') (A') (A') (A') (A') (A') (A') (A') (A')
 The electronic state of the initial guess is 1-A'.
 Keep R1 ints in memory in symmetry-blocked form, NReq=128070129.
 Requested convergence on RMS density matrix=1.00D-08 within 128 cycles.
 Requested convergence on MAX density matrix=1.00D-06.
 Requested convergence on             energy=1.00D-06.
 No special actions if energy rises.
 SCF Done:  E(RHF) =  -188.260370293     A.U. after   11 cycles
            NFock= 11  Conv=0.76D-08     -V/T= 2.0002
 ExpMin= 2.53D-02 ExpMax= 1.53D+04 ExpMxC= 5.22D+02 IAcc=3 IRadAn=         5 AccDes= 0.00D+00
 HarFok:  IExCor=  205 AccDes= 0.00D+00 IRadAn=         5 IDoV=-2 UseB2=F ITyADJ=14
 ICtDFT= 12500011 ScaDFX=  1.000000  1.000000  1.000000  1.000000
 Range of M.O.s used for correlation:     4   161
 NBasis=   161 NAE=    12 NBE=    12 NFC=     3 NFV=     0
 NROrb=    158 NOA=     9 NOB=     9 NVA=   149 NVB=   149

 **** Warning!!: The largest alpha MO coefficient is  0.39762484D+02

 Disk-based method using ON**2 memory for  9 occupieds at a time.
 Permanent disk used for amplitudes=     3924660 words.
 Estimated scratch disk usage=   113146432 words.
 Actual    scratch disk usage=   109232192 words.
 JobTyp=1 Pass  1:  I=   4 to  12 NPSUse=  2 ParTrn=T ParDer=T DoDerP=T.
 (rs|ai) integrals will be sorted in core.
 Spin components of T(2) and E(2):
     alpha-alpha T2 =       0.2441477876D-01 E2=     -0.8593446155D-01
     alpha-beta  T2 =       0.1272314135D+00 E2=     -0.4840708061D+00
     beta-beta   T2 =       0.2441477876D-01 E2=     -0.8593446155D-01
 ANorm=    0.1084463448D+01
 E2 =    -0.6559397292D+00 EUMP2 =    -0.18891631002200D+03
 G2DrvN: will do     5 centers at a time, making    1 passes.
 Calling FoFCou, ICntrl=  3107 FMM=F I1Cent=   0 AccDes= 0.00D+00.
 End of G2Drv F.D. properties file   721 does not exist.
 End of G2Drv F.D. properties file   722 does not exist.
 End of G2Drv F.D. properties file   788 does not exist.
          IDoAtm=1111
          Differentiating once with respect to electric field.
                with respect to dipole field.
          Differentiating once with respect to nuclear coordinates.
 Keep R1 ints in memory in symmetry-blocked form, NReq=128071153.
          There are    15 degrees of freedom in the 1st order CPHF.  IDoFFX=6 NUNeed=    15.
     12 vectors produced by pass  0 Test12= 1.19D-14 6.67D-09 XBig12= 8.71D+00 1.37D+00.
 AX will form    12 AO Fock derivatives at one time.
     12 vectors produced by pass  1 Test12= 1.19D-14 6.67D-09 XBig12= 1.10D+00 2.72D-01.
     12 vectors produced by pass  2 Test12= 1.19D-14 6.67D-09 XBig12= 3.16D-02 4.09D-02.
     12 vectors produced by pass  3 Test12= 1.19D-14 6.67D-09 XBig12= 8.36D-04 6.89D-03.
     12 vectors produced by pass  4 Test12= 1.19D-14 6.67D-09 XBig12= 1.42D-05 1.02D-03.
     12 vectors produced by pass  5 Test12= 1.19D-14 6.67D-09 XBig12= 2.16D-07 1.46D-04.
     12 vectors produced by pass  6 Test12= 1.19D-14 6.67D-09 XBig12= 2.09D-09 1.56D-05.
      9 vectors produced by pass  7 Test12= 1.19D-14 6.67D-09 XBig12= 1.86D-11 1.04D-06.
      5 vectors produced by pass  8 Test12= 1.19D-14 6.67D-09 XBig12= 1.55D-13 8.49D-08.
      1 vectors produced by pass  9 Test12= 1.19D-14 6.67D-09 XBig12= 1.44D-15 8.86D-09.
 InvSVY:  IOpt=1 It=  1 EMax= 8.88D-16
 Solved reduced A of dimension    99 with    12 vectors.
 End of Minotr F.D. properties file   721 does not exist.
 End of Minotr F.D. properties file   722 does not exist.
 End of Minotr F.D. properties file   788 does not exist.
 MDV=   536870912.
 Form MO integral derivatives with frozen-active canonical formalism.
 Discarding MO integrals.
 Reordered first order wavefunction length =      6393888
 In DefCFB: NBatch=  1 ICI= 12 ICA=149 LFMax= 50
            Large arrays: LIAPS=   218779680 LIARS=   130792200 words.
 Semi-Direct transformation.
 ModeAB=           2 MOrb=            12 LenV=     536063049
 LASXX=     23759367 LTotXX=    23759367 LenRXX=    23759367
 LTotAB=    24195042 MaxLAS=    35056140 LenRXY=    35056140
 NonZer=    47518734 LenScr=    72043008 LnRSAI=           0
 LnScr1=           0 LExtra=           0 Total=    130858515
 MaxDsk=          -1 SrtSym=           F ITran=            4
 JobTyp=0 Pass  1:  I=   1 to  12.
 (rs|ai) integrals will be sorted in core.
 Spin components of T(2) and E(2):
     alpha-alpha T2 =       0.2441477876D-01 E2=     -0.8593446155D-01
     alpha-beta  T2 =       0.1272314135D+00 E2=     -0.4840708061D+00
     beta-beta   T2 =       0.2441477876D-01 E2=     -0.8593446155D-01
 ANorm=    0.1533662917D+01
 E2 =    -0.6559397292D+00 EUMP2 =    -0.18891631002200D+03
          IDoAtm=1111
          Differentiating once with respect to electric field.
                with respect to dipole field.
          Differentiating once with respect to nuclear coordinates.
          There are     1 degrees of freedom in the 1st order CPHF.  IDoFFX=0 NUNeed=     1.
 LinEq1:  Iter=  0 NonCon=     1 RMS=6.41D-03 Max=1.06D-01 NDo=     1
 LinEq1:  Iter=  1 NonCon=     1 RMS=1.47D-03 Max=1.76D-02 NDo=     1
 LinEq1:  Iter=  2 NonCon=     1 RMS=5.34D-04 Max=6.50D-03 NDo=     1
 LinEq1:  Iter=  3 NonCon=     1 RMS=1.91D-04 Max=2.00D-03 NDo=     1
 LinEq1:  Iter=  4 NonCon=     1 RMS=5.59D-05 Max=7.59D-04 NDo=     1
 LinEq1:  Iter=  5 NonCon=     1 RMS=1.07D-05 Max=1.17D-04 NDo=     1
 LinEq1:  Iter=  6 NonCon=     1 RMS=2.28D-06 Max=2.81D-05 NDo=     1
 LinEq1:  Iter=  7 NonCon=     1 RMS=4.49D-07 Max=4.78D-06 NDo=     1
 LinEq1:  Iter=  8 NonCon=     1 RMS=7.25D-08 Max=8.08D-07 NDo=     1
 LinEq1:  Iter=  9 NonCon=     1 RMS=1.29D-08 Max=1.49D-07 NDo=     1
 LinEq1:  Iter= 10 NonCon=     1 RMS=1.70D-09 Max=2.47D-08 NDo=     1
 LinEq1:  Iter= 11 NonCon=     1 RMS=2.37D-10 Max=3.23D-09 NDo=     1
 LinEq1:  Iter= 12 NonCon=     0 RMS=3.93D-11 Max=4.21D-10 NDo=     1
 Linear equations converged to 1.000D-10 1.000D-09 after    12 iterations.
 End of Minotr F.D. properties file   721 does not exist.
 End of Minotr F.D. properties file   722 does not exist.
 End of Minotr F.D. properties file   788 does not exist.
 Symmetrizing basis deriv contribution to polar:
 IMax=3 JMax=2 DiffMx= 0.00D+00
 G2DrvN: will do     5 centers at a time, making    1 passes.
 Calling FoFCou, ICntrl=  3107 FMM=F I1Cent=   0 AccDes= 0.00D+00.
 End of G2Drv F.D. properties file   721 does not exist.
 End of G2Drv F.D. properties file   722 does not exist.
 End of G2Drv F.D. properties file   788 does not exist.
 R2 and R3 integrals will be kept in memory, NReq=   332743010.
 DD1Dir will call FoFMem   1 times, MxPair=       156
 NAB=    78 NAA=     0 NBB=     0.
 Discarding MO integrals.

 **********************************************************************

            Population analysis using the SCF Density.

 **********************************************************************

 Orbital symmetries:
       Occupied  (A') (A') (A') (A') (A') (A') (A') (A') (A") (A')
                 (A') (A")
       Virtual   (A') (A') (A") (A') (A') (A') (A') (A") (A") (A')
                 (A') (A") (A') (A') (A") (A') (A') (A') (A') (A")
                 (A") (A') (A') (A") (A') (A') (A') (A') (A') (A")
                 (A') (A') (A") (A') (A") (A") (A') (A') (A") (A')
                 (A') (A") (A') (A') (A") (A') (A") (A') (A') (A')
                 (A") (A") (A') (A') (A') (A") (A') (A") (A') (A")
                 (A') (A') (A') (A") (A') (A') (A") (A') (A') (A")
                 (A") (A") (A') (A") (A') (A') (A') (A') (A') (A")
                 (A') (A") (A') (A") (A') (A') (A') (A") (A") (A')
                 (A') (A') (A") (A') (A") (A') (A") (A') (A") (A')
                 (A") (A') (A") (A') (A') (A') (A') (A") (A') (A')
                 (A") (A') (A") (A") (A') (A") (A') (A') (A') (A')
                 (A') (A') (A") (A') (A") (A') (A') (A") (A") (A')
                 (A") (A') (A") (A') (A") (A') (A') (A") (A") (A')
                 (A") (A') (A') (A') (A') (A') (A') (A') (A')
 The electronic state is 1-A'.
 Alpha  occ. eigenvalues --  -20.28252 -20.28249 -11.10207  -1.15027  -1.05318
 Alpha  occ. eigenvalues --   -0.59876  -0.42963  -0.38170  -0.33451  -0.20431
 Alpha  occ. eigenvalues --   -0.19323  -0.18098
 Alpha virt. eigenvalues --    0.14285   0.21310   0.21323   0.21694   0.27839
 Alpha virt. eigenvalues --    0.31852   0.32721   0.33998   0.36375   0.36570
 Alpha virt. eigenvalues --    0.39125   0.42245   0.42864   0.45981   0.49502
 Alpha virt. eigenvalues --    0.50660   0.51816   0.53066   0.59247   0.59489
 Alpha virt. eigenvalues --    0.61822   0.70064   0.70868   0.73616   0.79054
 Alpha virt. eigenvalues --    0.82397   0.87682   0.91840   0.95568   0.96459
 Alpha virt. eigenvalues --    1.01607   1.03067   1.05602   1.06073   1.06328
 Alpha virt. eigenvalues --    1.07995   1.12533   1.12614   1.13314   1.16158
 Alpha virt. eigenvalues --    1.22458   1.23943   1.25449   1.26388   1.28163
 Alpha virt. eigenvalues --    1.30016   1.32263   1.38702   1.42778   1.47677
 Alpha virt. eigenvalues --    1.48497   1.56229   1.56662   1.65830   1.66124
 Alpha virt. eigenvalues --    1.72571   1.74452   1.78703   1.84138   1.89051
 Alpha virt. eigenvalues --    1.93470   2.01534   2.14177   2.18151   2.21766
 Alpha virt. eigenvalues --    2.41768   2.42019   2.45666   2.49145   2.51108
 Alpha virt. eigenvalues --    2.59466   2.61703   2.65101   2.65168   2.65177
 Alpha virt. eigenvalues --    2.69157   2.72918   2.74173   2.80211   2.82163
 Alpha virt. eigenvalues --    2.86161   2.89481   2.90068   2.91244   3.00257
 Alpha virt. eigenvalues --    3.06692   3.13155   3.15429   3.15845   3.18874
 Alpha virt. eigenvalues --    3.36131   3.46489   3.46716   3.59862   3.60695
 Alpha virt. eigenvalues --    3.77229   3.79171   3.81947   4.06682   4.20038
 Alpha virt. eigenvalues --    4.27036   4.28897   4.32847   4.35442   4.45485
 Alpha virt. eigenvalues --    4.46419   4.57957   4.69840   4.76580   4.88616
 Alpha virt. eigenvalues --    4.99265   5.29702   5.31284   5.34342   5.40430
 Alpha virt. eigenvalues --    5.72324   5.72782   5.82216   6.27656   6.32002
 Alpha virt. eigenvalues --    6.53625   6.54796   6.84940   6.86368   6.88220
 Alpha virt. eigenvalues --    6.88540   7.08950   7.09997   7.11404   7.25807
 Alpha virt. eigenvalues --    7.33845   7.38151   7.40063   7.46090   7.46475
 Alpha virt. eigenvalues --    7.48635   7.53404   7.55455   7.79723   7.81563
 Alpha virt. eigenvalues --    7.85746   7.87480   7.97837   8.05866   8.19691
 Alpha virt. eigenvalues --    8.33873  13.59358  15.69097  18.32239
          Condensed to atoms (all electrons):
               1          2          3          4
     1  C    5.141248   0.411579   0.411579   0.162035
     2  O    0.411579   8.468718  -0.107691  -0.039337
     3  O    0.411579  -0.107691   8.468718  -0.039337
     4  H    0.162035  -0.039337  -0.039337   0.323658
 Mulliken charges:
               1
     1  C   -0.126441
     2  O   -0.733269
     3  O   -0.733269
     4  H    0.592980
 Sum of Mulliken charges =  -1.00000
 Mulliken charges with hydrogens summed into heavy atoms:
               1
     1  C    0.466539
     2  O   -0.733269
     3  O   -0.733269
 APT charges:
               1
     1  C    1.107818
     2  O   -1.004417
     3  O   -1.004417
     4  H   -0.098983
 Sum of APT charges =  -1.00000
 APT charges with hydrogens summed into heavy atoms:
               1
     1  C    1.008834
     2  O   -1.004417
     3  O   -1.004417
 Electronic spatial extent (au):  <R**2>=            135.7813
 Charge=             -1.0000 electrons
 Dipole moment (field-independent basis, Debye):
    X=              0.0000    Y=              2.1824    Z=              0.0000  Tot=              2.1824
 Quadrupole moment (field-independent basis, Debye-Ang):
   XX=            -29.9545   YY=            -19.4619   ZZ=            -18.7346
   XY=              0.0000   XZ=              0.0000   YZ=              0.0000
 Traceless Quadrupole moment (field-independent basis, Debye-Ang):
   XX=             -7.2375   YY=              3.2551   ZZ=              3.9824
   XY=              0.0000   XZ=              0.0000   YZ=              0.0000
 Octapole moment (field-independent basis, Debye-Ang**2):
  XXX=              0.0000  YYY=              0.9996  ZZZ=              0.0000  XYY=              0.0000
  XXY=              1.2231  XXZ=              0.0000  XZZ=              0.0000  YZZ=              0.2065
  YYZ=              0.0000  XYZ=              0.0000
 Hexadecapole moment (field-independent basis, Debye-Ang**3):
 XXXX=           -140.3148 YYYY=            -36.1148 ZZZZ=            -19.5583 XXXY=              0.0000
 XXXZ=              0.0000 YYYX=              0.0000 YYYZ=              0.0000 ZZZX=              0.0000
 ZZZY=              0.0000 XXYY=            -27.7423 XXZZ=            -25.1632 YYZZ=             -9.1747
 XXYZ=              0.0000 YYXZ=              0.0000 ZZXY=              0.0000
 N-N= 6.295124589827D+01 E-N=-5.782503655726D+02  KE= 1.882144529753D+02
 Symmetry A'   KE= 1.806335258054D+02
 Symmetry A"   KE= 7.580927169921D+00
  Exact polarizability:  41.262   0.000  30.720   0.000   0.000  22.739
 Approx polarizability:  26.481   0.000  20.373   0.000   0.000  18.027
 Calling FoFJK, ICntrl=  10100127 FMM=F ISym2X=1 I1Cent= 0 IOpClX= 0 NMat=1 NMatS=1 NMatT=0.
 ***** Axes restored to original set *****
 -------------------------------------------------------------------
 Center     Atomic                   Forces (Hartrees/Bohr)
 Number     Number              X              Y              Z
 -------------------------------------------------------------------
      1        6           0.096253747    0.000000000    0.044698746
      2        8           0.004529409    0.000000000    0.009665552
      3        8           0.010306863    0.000000000   -0.002775779
      4        1          -0.111090019    0.000000000   -0.051588519
 -------------------------------------------------------------------
 Cartesian Forces:  Max     0.111090019 RMS     0.046986704
 -----------------------------------------------------------------------------------------------
                       Internal Coordinate Forces (Hartree/Bohr or radian)
  Cent   Atom   N1       Length/X         N2         Alpha/Y        N3         Beta/Z          J
 -----------------------------------------------------------------------------------------------
      1  C 
      2  O        1   0.009666(     1)
      3  O        1   0.009665(     2)      2  -0.010770(     4)
      4  H        1   0.122484(     3)      2   0.000000(     5)      3   0.000000(     6)     0
 -----------------------------------------------------------------------------------------------
 Internal  Forces:  Max     0.122484152 RMS     0.050506106

 GradGradGradGradGradGradGradGradGradGradGradGradGradGradGradGradGradGrad
 Berny optimization.
 Search for a local minimum.
 Step number   1 out of a maximum of   20
 All quantities printed in internal units (Hartrees-Bohrs-Radians)
 Second derivative matrix not updated -- analytic derivatives used.
 The second derivative matrix:
                          R1        A1        A2        R2
           R1           1.46408
           A1           0.03332   0.50717
           A2           0.00000   0.16014   0.32028
           R2           0.06269  -0.03349   0.00000   0.64639
 ITU=  0
     Eigenvalues ---    0.22809   0.59817   1.465271000.00000
 RFO step:  Lambda=-5.49399554D-04 EMin= 2.28092989D-01
 Linear search not attempted -- first point.
 Variable       Old X    -DE/DX   Delta X   Delta X   Delta X     New X
                                 (Linear)    (Quad)   (Total)
    R1        2.37778   0.01933   0.00000   0.01380   0.01380   2.39158
    A1        2.27209  -0.01077   0.00000  -0.02625  -0.02625   2.24584
    A2        2.00555   0.00000   0.00000   0.01310   0.01310   2.01865
    R2        1.84248   0.12248   0.00000   0.00000   0.00000   1.84248
         Item               Value     Threshold  Converged?
 Maximum Force            0.019331     0.000450     NO 
 RMS     Force            0.012776     0.000300     NO 
 Maximum Displacement     0.026250     0.001800     NO 
 RMS     Displacement     0.016210     0.001200     NO 
 Predicted change in Energy=-2.749888D-04
 GradGradGradGradGradGradGradGradGradGradGradGradGradGradGradGradGradGrad

 ---------------------------------------------------------------------------------------------------
                            Z-MATRIX (ANGSTROMS AND DEGREES)
   CD    Cent   Atom    N1       Length/X        N2       Alpha/Y        N3        Beta/Z          J
 ---------------------------------------------------------------------------------------------------
      1      1  C 
      2      2  O        1   1.265570(     1)
      3      3  O        1   1.265570(     2)      2  128.677(     4)
      4      4  H        1   0.975000(     3)      2  115.660(     5)      3  180.000(     6)      0
 ---------------------------------------------------------------------------------------------------
                         Z-Matrix orientation:                         
 ---------------------------------------------------------------------
 Center     Atomic      Atomic             Coordinates (Angstroms)
 Number     Number       Type             X           Y           Z
 ---------------------------------------------------------------------
      1          6           0        0.000000    0.000000    0.000000
      2          8           0        0.000000    0.000000    1.265570
      3          8           0        0.988005    0.000000   -0.790894
      4          1           0       -0.878844    0.000000   -0.422207
 ---------------------------------------------------------------------
                    Distance matrix (angstroms):
                    1          2          3          4
     1  C    0.000000
     2  O    1.265570   0.000000
     3  O    1.265570   2.281490   0.000000
     4  H    0.975000   1.902881   1.902907   0.000000
 Stoichiometry    CHO2(1-)
 Framework group  CS[SG(CHO2)]
 Deg. of freedom     5
 Full point group                 CS      NOp   2
 Largest Abelian subgroup         CS      NOp   2
 Largest concise Abelian subgroup C1      NOp   1
                         Standard orientation:                         
 ---------------------------------------------------------------------
 Center     Atomic      Atomic             Coordinates (Angstroms)
 Number     Number       Type             X           Y           Z
 ---------------------------------------------------------------------
      1          6           0        0.000000    0.338867    0.000000
      2          8           0       -1.140743   -0.209195    0.000000
      3          8           0        1.140747   -0.209188    0.000000
      4          1           0       -0.000025    1.313867    0.000000
 ---------------------------------------------------------------------
 Rotational constants (GHZ):         112.8080309          12.1402632          10.9606874
 Standard basis: Aug-CC-pVTZ (5D, 7F)
 There are   129 symmetry adapted cartesian basis functions of A'  symmetry.
 There are    61 symmetry adapted cartesian basis functions of A"  symmetry.
 There are   106 symmetry adapted basis functions of A'  symmetry.
 There are    55 symmetry adapted basis functions of A"  symmetry.
   161 basis functions,   243 primitive gaussians,   190 cartesian basis functions
    12 alpha electrons       12 beta electrons
       nuclear repulsion energy        62.6911410728 Hartrees.
 NAtoms=    4 NActive=    4 NUniq=    4 SFac= 1.00D+00 NAtFMM=   60 NAOKFM=F Big=F
 Integral buffers will be    131072 words long.
 Raffenetti 1 integral format.
 Two-electron integral symmetry is turned on.
 One-electron integrals computed using PRISM.
 NBasis=   161 RedAO= T EigKep=  6.69D-05  NBF=   106    55
 NBsUse=   161 1.00D-06 EigRej= -1.00D+00 NBFU=   106    55
 Initial guess from the checkpoint file:  "C:\Users\Garrett\Downloads\NanoclusterOutput\Gau-7388.chk"
 B after Tr=     0.000000    0.000000    0.000000
         Rot=    1.000000    0.000000    0.000000   -0.000002 Ang=   0.00 deg.
 Initial guess orbital symmetries:
       Occupied  (A') (A') (A') (A') (A') (A') (A') (A') (A") (A')
                 (A') (A")
       Virtual   (A') (A') (A") (A') (A') (A') (A') (A") (A") (A')
                 (A') (A") (A') (A') (A") (A') (A') (A') (A') (A")
                 (A") (A') (A') (A") (A') (A') (A') (A') (A') (A")
                 (A') (A') (A") (A') (A") (A") (A') (A') (A") (A')
                 (A') (A") (A') (A') (A") (A') (A") (A') (A') (A')
                 (A") (A") (A') (A') (A') (A") (A') (A") (A') (A")
                 (A') (A') (A') (A") (A') (A') (A") (A') (A') (A")
                 (A") (A") (A') (A") (A') (A') (A') (A') (A') (A")
                 (A') (A") (A') (A") (A') (A') (A') (A") (A") (A')
                 (A') (A') (A") (A') (A") (A') (A") (A') (A") (A')
                 (A") (A') (A") (A') (A') (A') (A') (A") (A') (A')
                 (A") (A') (A") (A") (A') (A") (A') (A') (A') (A')
                 (A') (A') (A") (A') (A") (A') (A') (A") (A") (A')
                 (A") (A') (A") (A') (A") (A') (A') (A") (A") (A')
                 (A") (A') (A') (A') (A') (A') (A') (A') (A')
 ExpMin= 2.53D-02 ExpMax= 1.53D+04 ExpMxC= 5.22D+02 IAcc=3 IRadAn=         5 AccDes= 0.00D+00
 Harris functional with IExCor=  205 and IRadAn=       5 diagonalized for initial guess.
 HarFok:  IExCor=  205 AccDes= 0.00D+00 IRadAn=         5 IDoV= 1 UseB2=F ITyADJ=14
 ICtDFT=  3500011 ScaDFX=  1.000000  1.000000  1.000000  1.000000
 FoFCou: FMM=F IPFlag=           0 FMFlag=      100000 FMFlg1=           0
         NFxFlg=           0 DoJE=T BraDBF=F KetDBF=T FulRan=T
         wScrn=  0.000000 ICntrl=       500 IOpCl=  0 I1Cent=   200000004 NGrid=           0
         NMat0=    1 NMatS0=      1 NMatT0=    0 NMatD0=    1 NMtDS0=    0 NMtDT0=    0
 Petite list used in FoFCou.
 Keep R1 ints in memory in symmetry-blocked form, NReq=128070129.
 Requested convergence on RMS density matrix=1.00D-08 within 128 cycles.
 Requested convergence on MAX density matrix=1.00D-06.
 Requested convergence on             energy=1.00D-06.
 No special actions if energy rises.
 SCF Done:  E(RHF) =  -188.259437135     A.U. after    9 cycles
            NFock=  9  Conv=0.78D-08     -V/T= 2.0005
 ExpMin= 2.53D-02 ExpMax= 1.53D+04 ExpMxC= 5.22D+02 IAcc=3 IRadAn=         5 AccDes= 0.00D+00
 HarFok:  IExCor=  205 AccDes= 0.00D+00 IRadAn=         5 IDoV=-2 UseB2=F ITyADJ=14
 ICtDFT= 12500011 ScaDFX=  1.000000  1.000000  1.000000  1.000000
 Range of M.O.s used for correlation:     4   161
 NBasis=   161 NAE=    12 NBE=    12 NFC=     3 NFV=     0
 NROrb=    158 NOA=     9 NOB=     9 NVA=   149 NVB=   149

 **** Warning!!: The largest alpha MO coefficient is  0.39497402D+02

 Fully direct method using O(ONN) memory.
 JobTyp=1 Pass  1:  I=   4 to  12 NPSUse=  2 ParTrn=T ParDer=T DoDerP=T.
 Spin components of T(2) and E(2):
     alpha-alpha T2 =       0.2458603595D-01 E2=     -0.8608677408D-01
     alpha-beta  T2 =       0.1281292743D+00 E2=     -0.4849773622D+00
     beta-beta   T2 =       0.2458603595D-01 E2=     -0.8608677408D-01
 ANorm=    0.1085035182D+01
 E2 =    -0.6571509103D+00 EUMP2 =    -0.18891658804558D+03
          IDoAtm=1111
          Differentiating once with respect to electric field.
                with respect to dipole field.
          Differentiating once with respect to nuclear coordinates.
 Keep R1 ints in memory in symmetry-blocked form, NReq=128071153.
          There are     1 degrees of freedom in the 1st order CPHF.  IDoFFX=0 NUNeed=     1.
 LinEq1:  Iter=  0 NonCon=     1 RMS=6.49D-03 Max=1.05D-01 NDo=     1
 AX will form     1 AO Fock derivatives at one time.
 LinEq1:  Iter=  1 NonCon=     1 RMS=1.51D-03 Max=1.84D-02 NDo=     1
 LinEq1:  Iter=  2 NonCon=     1 RMS=5.52D-04 Max=6.81D-03 NDo=     1
 LinEq1:  Iter=  3 NonCon=     1 RMS=2.01D-04 Max=2.14D-03 NDo=     1
 LinEq1:  Iter=  4 NonCon=     1 RMS=5.89D-05 Max=8.08D-04 NDo=     1
 LinEq1:  Iter=  5 NonCon=     1 RMS=1.16D-05 Max=1.26D-04 NDo=     1
 LinEq1:  Iter=  6 NonCon=     1 RMS=2.44D-06 Max=2.95D-05 NDo=     1
 LinEq1:  Iter=  7 NonCon=     1 RMS=4.76D-07 Max=5.11D-06 NDo=     1
 LinEq1:  Iter=  8 NonCon=     1 RMS=7.79D-08 Max=9.93D-07 NDo=     1
 LinEq1:  Iter=  9 NonCon=     1 RMS=1.40D-08 Max=1.69D-07 NDo=     1
 LinEq1:  Iter= 10 NonCon=     1 RMS=1.93D-09 Max=3.00D-08 NDo=     1
 LinEq1:  Iter= 11 NonCon=     1 RMS=6.47D-10 Max=9.82D-09 NDo=     1
 LinEq1:  Iter= 12 NonCon=     1 RMS=2.75D-10 Max=3.10D-09 NDo=     1
 LinEq1:  Iter= 13 NonCon=     0 RMS=3.90D-11 Max=6.33D-10 NDo=     1
 Linear equations converged to 1.000D-10 1.000D-09 after    13 iterations.
 End of Minotr F.D. properties file   721 does not exist.
 End of Minotr F.D. properties file   722 does not exist.
 End of Minotr F.D. properties file   788 does not exist.
 Calling FoFJK, ICntrl=  10002127 FMM=F ISym2X=1 I1Cent= 0 IOpClX= 0 NMat=1 NMatS=1 NMatT=0.
 ***** Axes restored to original set *****
 -------------------------------------------------------------------
 Center     Atomic                   Forces (Hartrees/Bohr)
 Number     Number              X              Y              Z
 -------------------------------------------------------------------
      1        6           0.108620662    0.000000000    0.052184949
      2        8           0.000032305    0.000000000    0.000281211
      3        8           0.000235381    0.000000000   -0.000150774
      4        1          -0.108888348    0.000000000   -0.052315385
 -------------------------------------------------------------------
 Cartesian Forces:  Max     0.108888348 RMS     0.049257357
 -----------------------------------------------------------------------------------------------
                       Internal Coordinate Forces (Hartree/Bohr or radian)
  Cent   Atom   N1       Length/X         N2         Alpha/Y        N3         Beta/Z          J
 -----------------------------------------------------------------------------------------------
      1  C 
      2  O        1   0.000281(     1)
      3  O        1   0.000278(     2)      2  -0.000070(     4)
      4  H        1   0.120804(     3)      2   0.000007(     5)      3   0.000000(     6)     0
 -----------------------------------------------------------------------------------------------
 Internal  Forces:  Max     0.120803856 RMS     0.049318240

 GradGradGradGradGradGradGradGradGradGradGradGradGradGradGradGradGradGrad
 Berny optimization.
 Search for a local minimum.
 Step number   2 out of a maximum of   20
 All quantities printed in internal units (Hartrees-Bohrs-Radians)
 Update second derivatives using D2CorN and points    1    2
 DE= -2.78D-04 DEPred=-2.75D-04 R= 1.01D+00
 TightC=F SS=  1.41D+00  RLast= 3.24D-02 DXNew= 5.0454D-01 9.7262D-02
 Trust test= 1.01D+00 RLast= 3.24D-02 DXMaxT set to 3.00D-01
 The second derivative matrix:
                          R1        A1        A2        R2
           R1           1.45684
           A1           0.04058   0.50578
           A2          -0.00344   0.16048   0.32028
           R2           0.06227  -0.03270  -0.00040   0.64639
 ITU=  1  0
     Eigenvalues ---    0.22723   0.59709   1.458581000.00000
 RFO step:  Lambda=-6.16042984D-08 EMin= 2.27231377D-01
 Quartic linear search produced a step of  0.01819.
 Variable       Old X    -DE/DX   Delta X   Delta X   Delta X     New X
                                 (Linear)    (Quad)   (Total)
    R1        2.39158   0.00056   0.00025   0.00014   0.00039   2.39198
    A1        2.24584  -0.00007  -0.00048   0.00026  -0.00022   2.24562
    A2        2.01865   0.00001   0.00024  -0.00010   0.00014   2.01879
    R2        1.84248   0.12080   0.00000   0.00000   0.00000   1.84248
         Item               Value     Threshold  Converged?
 Maximum Force            0.000559     0.000450     NO 
 RMS     Force            0.000325     0.000300     NO 
 Maximum Displacement     0.000394     0.001800     YES
 RMS     Displacement     0.000236     0.001200     YES
 Predicted change in Energy=-1.169523D-07
 GradGradGradGradGradGradGradGradGradGradGradGradGradGradGradGradGradGrad

 ---------------------------------------------------------------------------------------------------
                            Z-MATRIX (ANGSTROMS AND DEGREES)
   CD    Cent   Atom    N1       Length/X        N2       Alpha/Y        N3        Beta/Z          J
 ---------------------------------------------------------------------------------------------------
      1      1  C 
      2      2  O        1   1.265779(     1)
      3      3  O        1   1.265779(     2)      2  128.665(     4)
      4      4  H        1   0.975000(     3)      2  115.668(     5)      3  180.000(     6)      0
 ---------------------------------------------------------------------------------------------------
                         Z-Matrix orientation:                         
 ---------------------------------------------------------------------
 Center     Atomic      Atomic             Coordinates (Angstroms)
 Number     Number       Type             X           Y           Z
 ---------------------------------------------------------------------
      1          6           0        0.000000    0.000000    0.000000
      2          8           0        0.000000    0.000000    1.265779
      3          8           0        0.988342    0.000000   -0.790807
      4          1           0       -0.878785    0.000000   -0.422329
 ---------------------------------------------------------------------
                    Distance matrix (angstroms):
                    1          2          3          4
     1  C    0.000000
     2  O    1.265779   0.000000
     3  O    1.265779   2.281746   0.000000
     4  H    0.975000   1.903148   1.903140   0.000000
 Stoichiometry    CHO2(1-)
 Framework group  CS[SG(CHO2)]
 Deg. of freedom     5
 Full point group                 CS      NOp   2
 Largest Abelian subgroup         CS      NOp   2
 Largest concise Abelian subgroup C1      NOp   1
                         Standard orientation:                         
 ---------------------------------------------------------------------
 Center     Atomic      Atomic             Coordinates (Angstroms)
 Number     Number       Type             X           Y           Z
 ---------------------------------------------------------------------
      1          6           0        0.000000    0.339017    0.000000
      2          8           0       -1.140873   -0.209256    0.000000
      3          8           0        1.140872   -0.209258    0.000000
      4          1           0        0.000008    1.314017    0.000000
 ---------------------------------------------------------------------
 Rotational constants (GHZ):         112.7453466          12.1375424          10.9578777
 Standard basis: Aug-CC-pVTZ (5D, 7F)
 There are   129 symmetry adapted cartesian basis functions of A'  symmetry.
 There are    61 symmetry adapted cartesian basis functions of A"  symmetry.
 There are   106 symmetry adapted basis functions of A'  symmetry.
 There are    55 symmetry adapted basis functions of A"  symmetry.
   161 basis functions,   243 primitive gaussians,   190 cartesian basis functions
    12 alpha electrons       12 beta electrons
       nuclear repulsion energy        62.6822740685 Hartrees.
 NAtoms=    4 NActive=    4 NUniq=    4 SFac= 1.00D+00 NAtFMM=   60 NAOKFM=F Big=F
 Integral buffers will be    131072 words long.
 Raffenetti 1 integral format.
 Two-electron integral symmetry is turned on.
 One-electron integrals computed using PRISM.
 NBasis=   161 RedAO= T EigKep=  6.69D-05  NBF=   106    55
 NBsUse=   161 1.00D-06 EigRej= -1.00D+00 NBFU=   106    55
 Initial guess from the checkpoint file:  "C:\Users\Garrett\Downloads\NanoclusterOutput\Gau-7388.chk"
 B after Tr=     0.000000    0.000000    0.000000
         Rot=    1.000000    0.000000    0.000000    0.000003 Ang=   0.00 deg.
 Initial guess orbital symmetries:
       Occupied  (A') (A') (A') (A') (A') (A') (A') (A') (A") (A')
                 (A') (A")
       Virtual   (A') (A') (A") (A') (A') (A') (A') (A") (A") (A')
                 (A') (A") (A') (A') (A") (A') (A') (A') (A') (A")
                 (A") (A') (A') (A") (A') (A') (A') (A') (A') (A")
                 (A') (A') (A') (A") (A") (A") (A') (A') (A") (A')
                 (A') (A") (A') (A') (A") (A') (A") (A') (A') (A')
                 (A") (A") (A') (A') (A') (A") (A') (A") (A') (A")
                 (A') (A') (A') (A") (A') (A") (A') (A') (A') (A")
                 (A") (A") (A') (A') (A") (A') (A') (A') (A') (A")
                 (A') (A") (A') (A") (A') (A') (A') (A") (A") (A')
                 (A') (A') (A") (A') (A") (A') (A") (A') (A") (A')
                 (A") (A') (A") (A') (A') (A') (A') (A") (A') (A')
                 (A") (A') (A") (A") (A') (A') (A") (A') (A') (A')
                 (A') (A') (A") (A') (A") (A') (A') (A") (A") (A')
                 (A") (A') (A") (A") (A') (A') (A') (A") (A') (A")
                 (A") (A') (A') (A') (A') (A') (A') (A') (A')
 Keep R1 ints in memory in symmetry-blocked form, NReq=128070129.
 Requested convergence on RMS density matrix=1.00D-08 within 128 cycles.
 Requested convergence on MAX density matrix=1.00D-06.
 Requested convergence on             energy=1.00D-06.
 No special actions if energy rises.
 SCF Done:  E(RHF) =  -188.259402096     A.U. after    7 cycles
            NFock=  7  Conv=0.15D-08     -V/T= 2.0005
 ExpMin= 2.53D-02 ExpMax= 1.53D+04 ExpMxC= 5.22D+02 IAcc=3 IRadAn=         5 AccDes= 0.00D+00
 HarFok:  IExCor=  205 AccDes= 0.00D+00 IRadAn=         5 IDoV=-2 UseB2=F ITyADJ=14
 ICtDFT= 12500011 ScaDFX=  1.000000  1.000000  1.000000  1.000000
 Range of M.O.s used for correlation:     4   161
 NBasis=   161 NAE=    12 NBE=    12 NFC=     3 NFV=     0
 NROrb=    158 NOA=     9 NOB=     9 NVA=   149 NVB=   149

 **** Warning!!: The largest alpha MO coefficient is  0.39515985D+02

 Fully direct method using O(ONN) memory.
 JobTyp=1 Pass  1:  I=   4 to  12 NPSUse=  2 ParTrn=T ParDer=T DoDerP=T.
 Spin components of T(2) and E(2):
     alpha-alpha T2 =       0.2459102125D-01 E2=     -0.8609119876D-01
     alpha-beta  T2 =       0.1281548901D+00 E2=     -0.4850036738D+00
     beta-beta   T2 =       0.2459102125D-01 E2=     -0.8609119876D-01
 ANorm=    0.1085051581D+01
 E2 =    -0.6571860713D+00 EUMP2 =    -0.18891658816745D+03
          IDoAtm=1111
          Differentiating once with respect to electric field.
                with respect to dipole field.
          Differentiating once with respect to nuclear coordinates.
 Keep R1 ints in memory in symmetry-blocked form, NReq=128071153.
          There are     1 degrees of freedom in the 1st order CPHF.  IDoFFX=0 NUNeed=     1.
 LinEq1:  Iter=  0 NonCon=     1 RMS=6.49D-03 Max=1.05D-01 NDo=     1
 AX will form     1 AO Fock derivatives at one time.
 LinEq1:  Iter=  1 NonCon=     1 RMS=1.51D-03 Max=1.84D-02 NDo=     1
 LinEq1:  Iter=  2 NonCon=     1 RMS=5.52D-04 Max=6.82D-03 NDo=     1
 LinEq1:  Iter=  3 NonCon=     1 RMS=2.01D-04 Max=2.14D-03 NDo=     1
 LinEq1:  Iter=  4 NonCon=     1 RMS=5.90D-05 Max=8.09D-04 NDo=     1
 LinEq1:  Iter=  5 NonCon=     1 RMS=1.16D-05 Max=1.27D-04 NDo=     1
 LinEq1:  Iter=  6 NonCon=     1 RMS=2.45D-06 Max=2.95D-05 NDo=     1
 LinEq1:  Iter=  7 NonCon=     1 RMS=4.77D-07 Max=5.11D-06 NDo=     1
 LinEq1:  Iter=  8 NonCon=     1 RMS=7.80D-08 Max=9.96D-07 NDo=     1
 LinEq1:  Iter=  9 NonCon=     1 RMS=1.40D-08 Max=1.69D-07 NDo=     1
 LinEq1:  Iter= 10 NonCon=     1 RMS=1.85D-09 Max=2.99D-08 NDo=     1
 LinEq1:  Iter= 11 NonCon=     1 RMS=3.26D-10 Max=4.04D-09 NDo=     1
 LinEq1:  Iter= 12 NonCon=     1 RMS=1.77D-10 Max=2.45D-09 NDo=     1
 LinEq1:  Iter= 13 NonCon=     0 RMS=3.86D-11 Max=6.21D-10 NDo=     1
 Linear equations converged to 1.000D-10 1.000D-09 after    13 iterations.
 End of Minotr F.D. properties file   721 does not exist.
 End of Minotr F.D. properties file   722 does not exist.
 End of Minotr F.D. properties file   788 does not exist.
 Calling FoFJK, ICntrl=  10002127 FMM=F ISym2X=1 I1Cent= 0 IOpClX= 0 NMat=1 NMatS=1 NMatT=0.
 ***** Axes restored to original set *****
 -------------------------------------------------------------------
 Center     Atomic                   Forces (Hartrees/Bohr)
 Number     Number              X              Y              Z
 -------------------------------------------------------------------
      1        6           0.108852391    0.000000000    0.052311879
      2        8          -0.000001863    0.000000000    0.000007266
      3        8           0.000005859    0.000000000   -0.000005918
      4        1          -0.108856388    0.000000000   -0.052313227
 -------------------------------------------------------------------
 Cartesian Forces:  Max     0.108856388 RMS     0.049304972
 -----------------------------------------------------------------------------------------------
                       Internal Coordinate Forces (Hartree/Bohr or radian)
  Cent   Atom   N1       Length/X         N2         Alpha/Y        N3         Beta/Z          J
 -----------------------------------------------------------------------------------------------
      1  C 
      2  O        1   0.000007(     1)
      3  O        1   0.000008(     2)      2   0.000002(     4)
      4  H        1   0.120774(     3)      2  -0.000002(     5)      3   0.000000(     6)     0
 -----------------------------------------------------------------------------------------------
 Internal  Forces:  Max     0.120774115 RMS     0.049305826

 GradGradGradGradGradGradGradGradGradGradGradGradGradGradGradGradGradGrad
 Berny optimization.
 Search for a local minimum.
 Step number   3 out of a maximum of   20
 All quantities printed in internal units (Hartrees-Bohrs-Radians)
 Update second derivatives using D2CorN and points    1    3
 DE= -1.22D-07 DEPred=-1.17D-07 R= 1.04D+00
 Trust test= 1.04D+00 RLast= 4.73D-04 DXMaxT set to 3.00D-01
 The second derivative matrix:
                          R1        A1        A2        R2
           R1           1.45371
           A1           0.04294   0.50787
           A2          -0.00452   0.15925   0.32099
           R2           0.06205  -0.03228  -0.00061   0.64639
 ITU=  0  1  0
     Eigenvalues ---    0.22927   0.59764   1.455661000.00000
 RFO step:  Lambda= 0.00000000D+00 EMin= 2.29267927D-01
 Quartic linear search produced a step of  0.02256.
 Variable       Old X    -DE/DX   Delta X   Delta X   Delta X     New X
                                 (Linear)    (Quad)   (Total)
    R1        2.39198   0.00002   0.00001   0.00000   0.00001   2.39199
    A1        2.24562   0.00000   0.00000   0.00001   0.00001   2.24563
    A2        2.01879   0.00000   0.00000  -0.00001  -0.00001   2.01878
    R2        1.84248   0.12077   0.00000   0.00000   0.00000   1.84248
         Item               Value     Threshold  Converged?
 Maximum Force            0.000016     0.000450     YES
 RMS     Force            0.000009     0.000300     YES
 Maximum Displacement     0.000011     0.001800     YES
 RMS     Displacement     0.000008     0.001200     YES
 Predicted change in Energy=-9.967215D-11
 Optimization completed.
    -- Stationary point found.
                       ----------------------------
                       !   Optimized Parameters   !
                       ! (Angstroms and Degrees)  !
 ----------------------                            ----------------------
 !      Name          Value   Derivative information (Atomic Units)     !
 ------------------------------------------------------------------------
 !       R1          1.2658   -DE/DX =    0.0                           !
 !       A1        128.6645   -DE/DX =    0.0                           !
 !       A2        115.6681   -DE/DX =    0.0                           !
 !       R2          0.975    -DE/DX =    0.1208                        !
 ------------------------------------------------------------------------
 GradGradGradGradGradGradGradGradGradGradGradGradGradGradGradGradGradGrad

 ---------------------------------------------------------------------------------------------------
                            Z-MATRIX (ANGSTROMS AND DEGREES)
   CD    Cent   Atom    N1       Length/X        N2       Alpha/Y        N3        Beta/Z          J
 ---------------------------------------------------------------------------------------------------
      1      1  C 
      2      2  O        1   1.265779(     1)
      3      3  O        1   1.265779(     2)      2  128.665(     4)
      4      4  H        1   0.975000(     3)      2  115.668(     5)      3  180.000(     6)      0
 ---------------------------------------------------------------------------------------------------
                         Z-Matrix orientation:                         
 ---------------------------------------------------------------------
 Center     Atomic      Atomic             Coordinates (Angstroms)
 Number     Number       Type             X           Y           Z
 ---------------------------------------------------------------------
      1          6           0        0.000000    0.000000    0.000000
      2          8           0        0.000000    0.000000    1.265779
      3          8           0        0.988342    0.000000   -0.790807
      4          1           0       -0.878785    0.000000   -0.422329
 ---------------------------------------------------------------------
                    Distance matrix (angstroms):
                    1          2          3          4
     1  C    0.000000
     2  O    1.265779   0.000000
     3  O    1.265779   2.281746   0.000000
     4  H    0.975000   1.903148   1.903140   0.000000
 Stoichiometry    CHO2(1-)
 Framework group  CS[SG(CHO2)]
 Deg. of freedom     5
 Full point group                 CS      NOp   2
 Largest Abelian subgroup         CS      NOp   2
 Largest concise Abelian subgroup C1      NOp   1
                         Standard orientation:                         
 ---------------------------------------------------------------------
 Center     Atomic      Atomic             Coordinates (Angstroms)
 Number     Number       Type             X           Y           Z
 ---------------------------------------------------------------------
      1          6           0        0.000000    0.339017    0.000000
      2          8           0       -1.140873   -0.209256    0.000000
      3          8           0        1.140872   -0.209258    0.000000
      4          1           0        0.000008    1.314017    0.000000
 ---------------------------------------------------------------------
 Rotational constants (GHZ):         112.7453466          12.1375424          10.9578777

 **********************************************************************

            Population analysis using the SCF Density.

 **********************************************************************

 Orbital symmetries:
       Occupied  (A') (A') (A') (A') (A') (A') (A') (A') (A") (A')
                 (A') (A")
       Virtual   (A') (A') (A") (A') (A') (A') (A') (A") (A") (A')
                 (A') (A") (A') (A') (A") (A') (A') (A') (A') (A")
                 (A") (A') (A') (A") (A') (A') (A') (A') (A') (A")
                 (A') (A') (A') (A") (A") (A") (A') (A') (A") (A')
                 (A') (A") (A') (A') (A") (A') (A") (A') (A') (A')
                 (A") (A") (A') (A') (A') (A") (A') (A") (A') (A")
                 (A') (A') (A') (A") (A') (A") (A') (A') (A') (A")
                 (A") (A") (A') (A') (A") (A') (A') (A') (A') (A")
                 (A') (A") (A') (A") (A') (A') (A') (A") (A") (A')
                 (A') (A') (A") (A') (A") (A') (A") (A') (A") (A')
                 (A") (A') (A") (A') (A') (A') (A') (A") (A') (A')
                 (A") (A') (A") (A") (A') (A') (A") (A') (A') (A')
                 (A') (A') (A") (A') (A") (A') (A') (A") (A") (A')
                 (A") (A') (A") (A") (A') (A') (A') (A") (A') (A")
                 (A") (A') (A') (A') (A') (A') (A') (A') (A')
 The electronic state is 1-A'.
 Alpha  occ. eigenvalues --  -20.28307 -20.28304 -11.10503  -1.14640  -1.04821
 Alpha  occ. eigenvalues --   -0.60186  -0.42828  -0.37895  -0.33149  -0.20210
 Alpha  occ. eigenvalues --   -0.19609  -0.17935
 Alpha virt. eigenvalues --    0.14239   0.21296   0.21323   0.21720   0.27780
 Alpha virt. eigenvalues --    0.31863   0.32780   0.34121   0.36146   0.36431
 Alpha virt. eigenvalues --    0.39241   0.42056   0.42863   0.45839   0.49244
 Alpha virt. eigenvalues --    0.50718   0.51692   0.53090   0.59020   0.59745
 Alpha virt. eigenvalues --    0.61535   0.70055   0.70815   0.73720   0.78977
 Alpha virt. eigenvalues --    0.81981   0.87603   0.91412   0.95344   0.96833
 Alpha virt. eigenvalues --    1.01757   1.03167   1.05592   1.05692   1.06630
 Alpha virt. eigenvalues --    1.07723   1.12472   1.12476   1.13024   1.15920
 Alpha virt. eigenvalues --    1.22665   1.23362   1.25075   1.25610   1.28482
 Alpha virt. eigenvalues --    1.30305   1.31761   1.39245   1.42084   1.47536
 Alpha virt. eigenvalues --    1.48357   1.56551   1.56774   1.65675   1.65710
 Alpha virt. eigenvalues --    1.72541   1.74213   1.77949   1.84230   1.89187
 Alpha virt. eigenvalues --    1.92874   2.00884   2.13584   2.17554   2.23243
 Alpha virt. eigenvalues --    2.42182   2.42322   2.44736   2.49055   2.50213
 Alpha virt. eigenvalues --    2.59249   2.61694   2.65045   2.65146   2.65294
 Alpha virt. eigenvalues --    2.68945   2.72564   2.74470   2.77828   2.82245
 Alpha virt. eigenvalues --    2.85856   2.89056   2.89368   2.90525   3.00877
 Alpha virt. eigenvalues --    3.05740   3.13482   3.15287   3.15610   3.19882
 Alpha virt. eigenvalues --    3.35893   3.45871   3.46898   3.58637   3.60321
 Alpha virt. eigenvalues --    3.76948   3.78562   3.80215   4.06840   4.19107
 Alpha virt. eigenvalues --    4.25943   4.28966   4.32458   4.34622   4.45110
 Alpha virt. eigenvalues --    4.45218   4.55439   4.68669   4.73910   4.89711
 Alpha virt. eigenvalues --    4.98951   5.29960   5.30295   5.30630   5.36570
 Alpha virt. eigenvalues --    5.70076   5.72365   5.82182   6.27933   6.31181
 Alpha virt. eigenvalues --    6.53457   6.53911   6.85267   6.86791   6.87943
 Alpha virt. eigenvalues --    6.88143   7.09069   7.09406   7.10999   7.24197
 Alpha virt. eigenvalues --    7.32264   7.36394   7.39205   7.45645   7.45957
 Alpha virt. eigenvalues --    7.48776   7.53130   7.55251   7.79115   7.79542
 Alpha virt. eigenvalues --    7.84866   7.88355   7.97427   8.04830   8.19876
 Alpha virt. eigenvalues --    8.32334  13.41158  15.54282  18.24620
          Condensed to atoms (all electrons):
               1          2          3          4
     1  C    5.136164   0.413968   0.413966   0.159425
     2  O    0.413968   8.466300  -0.108023  -0.036334
     3  O    0.413966  -0.108023   8.466302  -0.036334
     4  H    0.159425  -0.036334  -0.036334   0.317900
 Mulliken charges:
               1
     1  C   -0.123523
     2  O   -0.735910
     3  O   -0.735910
     4  H    0.595343
 Sum of Mulliken charges =  -1.00000
 Mulliken charges with hydrogens summed into heavy atoms:
               1
     1  C    0.471820
     2  O   -0.735910
     3  O   -0.735910
 Electronic spatial extent (au):  <R**2>=            136.1981
 Charge=             -1.0000 electrons
 Dipole moment (field-independent basis, Debye):
    X=              0.0000    Y=              2.2729    Z=              0.0000  Tot=              2.2729
 Quadrupole moment (field-independent basis, Debye-Ang):
   XX=            -30.0297   YY=            -19.3858   ZZ=            -18.7757
   XY=              0.0000   XZ=              0.0000   YZ=              0.0000
 Traceless Quadrupole moment (field-independent basis, Debye-Ang):
   XX=             -7.2993   YY=              3.3446   ZZ=              3.9547
   XY=              0.0000   XZ=              0.0000   YZ=              0.0000
 Octapole moment (field-independent basis, Debye-Ang**2):
  XXX=              0.0000  YYY=              1.1295  ZZZ=              0.0000  XYY=              0.0000
  XXY=              1.1868  XXZ=              0.0000  XZZ=              0.0000  YZZ=              0.2166
  YYZ=              0.0000  XYZ=              0.0000
 Hexadecapole moment (field-independent basis, Debye-Ang**3):
 XXXX=           -140.8490 YYYY=            -36.2922 ZZZZ=            -19.6630 XXXY=              0.0000
 XXXZ=              0.0000 YYYX=              0.0001 YYYZ=              0.0000 ZZZX=              0.0000
 ZZZY=              0.0000 XXYY=            -27.8032 XXZZ=            -25.2609 YYZZ=             -9.2448
 XXYZ=              0.0000 YYXZ=              0.0000 ZZXY=              0.0000
 N-N= 6.268227406851D+01 E-N=-5.776774216806D+02  KE= 1.881618190299D+02
 Symmetry A'   KE= 1.805896636886D+02
 Symmetry A"   KE= 7.572155341347D+00
 1|1|UNPC-DESKTOP-F4NP0R6|POpt|RMP2-FC|Aug-CC-pVTZ|C1H1O2(1-)|GARRETT|2
 3-Jul-2018|1||# MP2 Aug-cc-pvTZ opt=(noeigen,calcfc,z-matrix)||Formate
 ||-1,1|C|O,1,R1|O,1,R1,2,A1|H,1,R2,2,A2,3,180.,0||R1=1.26577867|A1=128
 .66450526|A2=115.66814695|R2=0.975||Version=EM64W-G16RevB.01|State=1-A
 '|HF=-188.2594021|MP2=-188.9165882|RMSD=1.484e-009|RMSF=4.930e-002|Dip
 ole=-0.6687054,0.,-0.3213633|PG=CS [SG(C1H1O2)]||@


 IF YOU DON'T HAVE THE LAW - ARGUE THE FACTS.
 IF YOU DON'T HAVE THE FACTS - ARGUE THE LAW.
 IF YOU DON'T HAVE EITHER - POUND THE TABLE.
 Job cpu time:       0 days  0 hours 26 minutes 32.0 seconds.
 Elapsed time:       0 days  0 hours 26 minutes 21.1 seconds.
 File lengths (MBytes):  RWF=   2790 Int=      0 D2E=      0 Chk=      4 Scr=      1
 Normal termination of Gaussian 16 at Mon Jul 23 09:48:53 2018.
