 Entering Link 1 = C:\G16W\l1.exe PID=     21820.
  
 Copyright (c) 1988-2017, Gaussian, Inc.  All Rights Reserved.
  
 This is part of the Gaussian(R) 16 program.  It is based on
 the Gaussian(R) 09 system (copyright 2009, Gaussian, Inc.),
 the Gaussian(R) 03 system (copyright 2003, Gaussian, Inc.),
 the Gaussian(R) 98 system (copyright 1998, Gaussian, Inc.),
 the Gaussian(R) 94 system (copyright 1995, Gaussian, Inc.),
 the Gaussian 92(TM) system (copyright 1992, Gaussian, Inc.),
 the Gaussian 90(TM) system (copyright 1990, Gaussian, Inc.),
 the Gaussian 88(TM) system (copyright 1988, Gaussian, Inc.),
 the Gaussian 86(TM) system (copyright 1986, Carnegie Mellon
 University), and the Gaussian 82(TM) system (copyright 1983,
 Carnegie Mellon University). Gaussian is a federally registered
 trademark of Gaussian, Inc.
  
 This software contains proprietary and confidential information,
 including trade secrets, belonging to Gaussian, Inc.
  
 This software is provided under written license and may be
 used, copied, transmitted, or stored only in accord with that
 written license.
  
 The following legend is applicable only to US Government
 contracts under FAR:
  
                    RESTRICTED RIGHTS LEGEND
  
 Use, reproduction and disclosure by the US Government is
 subject to restrictions as set forth in subparagraphs (a)
 and (c) of the Commercial Computer Software - Restricted
 Rights clause in FAR 52.227-19.
  
 Gaussian, Inc.
 340 Quinnipiac St., Bldg. 40, Wallingford CT 06492
  
  
 ---------------------------------------------------------------
 Warning -- This program may not be used in any manner that
 competes with the business of Gaussian, Inc. or will provide
 assistance to any competitor of Gaussian, Inc.  The licensee
 of this program is prohibited from giving any competitor of
 Gaussian, Inc. access to this program.  By using this program,
 the user acknowledges that Gaussian, Inc. is engaged in the
 business of creating and licensing software in the field of
 computational chemistry and represents and warrants to the
 licensee that it is not a competitor of Gaussian, Inc. and that
 it will not use this program in any manner prohibited above.
 ---------------------------------------------------------------
  

 Cite this work as:
 Gaussian 16, Revision B.01,
 M. J. Frisch, G. W. Trucks, H. B. Schlegel, G. E. Scuseria, 
 M. A. Robb, J. R. Cheeseman, G. Scalmani, V. Barone, 
 G. A. Petersson, H. Nakatsuji, X. Li, M. Caricato, A. V. Marenich, 
 J. Bloino, B. G. Janesko, R. Gomperts, B. Mennucci, H. P. Hratchian, 
 J. V. Ortiz, A. F. Izmaylov, J. L. Sonnenberg, D. Williams-Young, 
 F. Ding, F. Lipparini, F. Egidi, J. Goings, B. Peng, A. Petrone, 
 T. Henderson, D. Ranasinghe, V. G. Zakrzewski, J. Gao, N. Rega, 
 G. Zheng, W. Liang, M. Hada, M. Ehara, K. Toyota, R. Fukuda, 
 J. Hasegawa, M. Ishida, T. Nakajima, Y. Honda, O. Kitao, H. Nakai, 
 T. Vreven, K. Throssell, J. A. Montgomery, Jr., J. E. Peralta, 
 F. Ogliaro, M. J. Bearpark, J. J. Heyd, E. N. Brothers, K. N. Kudin, 
 V. N. Staroverov, T. A. Keith, R. Kobayashi, J. Normand, 
 K. Raghavachari, A. P. Rendell, J. C. Burant, S. S. Iyengar, 
 J. Tomasi, M. Cossi, J. M. Millam, M. Klene, C. Adamo, R. Cammi, 
 J. W. Ochterski, R. L. Martin, K. Morokuma, O. Farkas, 
 J. B. Foresman, and D. J. Fox, Gaussian, Inc., Wallingford CT, 2016.
 
 ******************************************
 Gaussian 16:  EM64W-G16RevB.01 16-Dec-2017
                23-Jul-2018 
 ******************************************
 %nproc=2
 Will use up to    2 processors via shared memory.
 %mem=4gb
 -----------------------------------------------
 # MP2 Aug-cc-pvTZ opt=(noeigen,calcfc,z-matrix)
 -----------------------------------------------
 1/10=4,11=1,18=40,38=1/1,3;
 2/12=2,17=6,18=5,29=3,40=1/2;
 3/5=16,6=1,7=10,11=9,25=1,30=1,71=2,140=1/1,2,3;
 4//1;
 5/5=2,38=5/2;
 8/6=3,8=1,10=1,19=11,30=-1/1;
 9/15=3,16=-3/6;
 11/6=1,8=1,15=11,17=12,24=-1,27=1,28=-2,29=300,32=6,42=3/1,2,10;
 10/6=2,21=1/2;
 8/6=4,8=1,10=1,19=11,30=-1/11,4;
 10/5=1,20=4/2;
 11/12=2,14=11,16=1,17=2,28=-2,42=3,76=2/2,10,12;
 6/7=2,8=2,9=2,10=2/1;
 7/10=1,12=2,25=1,44=2/1,2,3,16;
 1/10=4,11=1,18=40/3(2);
 2/29=3/2;
 99//99;
 2/29=3/2;
 3/5=16,6=1,7=10,11=9,25=1,30=1,71=1/1,2,3;
 4/5=5,16=3,69=1/1;
 5/5=2,38=5/2;
 8/6=4,10=1/1;
 9/15=2,16=-3/6;
 10/5=1/2;
 7/12=2/1,2,3,16;
 1/11=1,18=40/3(-8);
 2/29=3/2;
 6/7=2,8=2,9=2,10=2/1;
 99/9=10/99;
 -------
 Formate
 -------
 Symbolic Z-matrix:
 Charge = -1 Multiplicity = 1
 C
 O                    1    R1
 O                    1    R1       2    A1
 H                    1    R2       2    A2       3     180.     0
       Variables:
  R1                    1.25827                  
  A1                  130.18115                  
  A2                  114.9094                   
       Constants:
  R2                    1.275                    
 

 GradGradGradGradGradGradGradGradGradGradGradGradGradGradGradGradGradGrad
 Berny optimization.
 Initialization pass.
                       ----------------------------
                       !    Initial Parameters    !
                       ! (Angstroms and Degrees)  !
 ----------------------                            ----------------------
 !      Name          Value   Derivative information (Atomic Units)     !
 ------------------------------------------------------------------------
 !       R1          1.2583   calculate D2E/DX2 analytically            !
 !       A1        130.1811   calculate D2E/DX2 analytically            !
 !       A2        114.9094   calculate D2E/DX2 analytically            !
 !       R2          1.275    frozen, calculate D2E/DX2 analytically    !
 ------------------------------------------------------------------------
 Trust Radius=3.00D-01 FncErr=1.00D-07 GrdErr=1.00D-07 EigMax=2.50D+02 EigMin=1.00D-04
 Number of steps in this run=     20 maximum allowed number of steps=    100.
 GradGradGradGradGradGradGradGradGradGradGradGradGradGradGradGradGradGrad

 ---------------------------------------------------------------------------------------------------
                            Z-MATRIX (ANGSTROMS AND DEGREES)
   CD    Cent   Atom    N1       Length/X        N2       Alpha/Y        N3        Beta/Z          J
 ---------------------------------------------------------------------------------------------------
      1      1  C 
      2      2  O        1   1.258269(     1)
      3      3  O        1   1.258269(     2)      2  130.181(     4)
      4      4  H        1   1.275000(     3)      2  114.909(     5)      3  180.000(     6)      0
 ---------------------------------------------------------------------------------------------------
                         Z-Matrix orientation:                         
 ---------------------------------------------------------------------
 Center     Atomic      Atomic             Coordinates (Angstroms)
 Number     Number       Type             X           Y           Z
 ---------------------------------------------------------------------
      1          6           0        0.000000    0.000000    0.000000
      2          8           0        0.000000    0.000000    1.258269
      3          8           0        0.961328    0.000000   -0.811843
      4          1           0       -1.156393    0.000000   -0.537010
 ---------------------------------------------------------------------
                    Distance matrix (angstroms):
                    1          2          3          4
     1  C    0.000000
     2  O    1.258269   0.000000
     3  O    1.258269   2.282437   0.000000
     4  H    1.275000   2.135480   2.135481   0.000000
 Stoichiometry    CHO2(1-)
 Framework group  CS[SG(CHO2)]
 Deg. of freedom     5
 Full point group                 CS      NOp   2
 Largest Abelian subgroup         CS      NOp   2
 Largest concise Abelian subgroup C1      NOp   1
                         Standard orientation:                         
 ---------------------------------------------------------------------
 Center     Atomic      Atomic             Coordinates (Angstroms)
 Number     Number       Type             X           Y           Z
 ---------------------------------------------------------------------
      1          6           0        0.000000    0.313236    0.000000
      2          8           0       -1.141219   -0.216728    0.000000
      3          8           0        1.141219   -0.216728    0.000000
      4          1           0       -0.000001    1.588236    0.000000
 ---------------------------------------------------------------------
 Rotational constants (GHZ):          97.8051504          12.1301890          10.7917524
 Standard basis: Aug-CC-pVTZ (5D, 7F)
 There are   129 symmetry adapted cartesian basis functions of A'  symmetry.
 There are    61 symmetry adapted cartesian basis functions of A"  symmetry.
 There are   106 symmetry adapted basis functions of A'  symmetry.
 There are    55 symmetry adapted basis functions of A"  symmetry.
   161 basis functions,   243 primitive gaussians,   190 cartesian basis functions
    12 alpha electrons       12 beta electrons
       nuclear repulsion energy        61.6670338192 Hartrees.
 NAtoms=    4 NActive=    4 NUniq=    4 SFac= 1.00D+00 NAtFMM=   60 NAOKFM=F Big=F
 Integral buffers will be    131072 words long.
 Raffenetti 1 integral format.
 Two-electron integral symmetry is turned on.
 One-electron integrals computed using PRISM.
 NBasis=   161 RedAO= T EigKep=  1.59D-04  NBF=   106    55
 NBsUse=   161 1.00D-06 EigRej= -1.00D+00 NBFU=   106    55
 ExpMin= 2.53D-02 ExpMax= 1.53D+04 ExpMxC= 5.22D+02 IAcc=3 IRadAn=         5 AccDes= 0.00D+00
 Harris functional with IExCor=  205 and IRadAn=       5 diagonalized for initial guess.
 HarFok:  IExCor=  205 AccDes= 0.00D+00 IRadAn=         5 IDoV= 1 UseB2=F ITyADJ=14
 ICtDFT=  3500011 ScaDFX=  1.000000  1.000000  1.000000  1.000000
 FoFCou: FMM=F IPFlag=           0 FMFlag=      100000 FMFlg1=           0
         NFxFlg=           0 DoJE=T BraDBF=F KetDBF=T FulRan=T
         wScrn=  0.000000 ICntrl=       500 IOpCl=  0 I1Cent=   200000004 NGrid=           0
         NMat0=    1 NMatS0=      1 NMatT0=    0 NMatD0=    1 NMtDS0=    0 NMtDT0=    0
 Petite list used in FoFCou.
 Initial guess orbital symmetries:
       Occupied  (A') (A') (A') (A') (A') (A') (A') (A') (A") (A")
                 (A') (A')
       Virtual   (A") (A') (A') (A') (A") (A') (A') (A') (A') (A")
                 (A") (A') (A') (A') (A") (A') (A') (A') (A") (A')
                 (A') (A") (A') (A') (A") (A') (A') (A') (A') (A")
                 (A') (A') (A") (A") (A') (A") (A") (A') (A') (A')
                 (A') (A') (A") (A") (A') (A") (A') (A') (A") (A')
                 (A') (A') (A") (A') (A') (A") (A") (A') (A') (A")
                 (A') (A') (A') (A') (A") (A') (A') (A") (A') (A")
                 (A") (A") (A") (A') (A') (A') (A') (A') (A') (A")
                 (A') (A') (A") (A") (A') (A') (A') (A") (A") (A')
                 (A') (A") (A') (A") (A') (A') (A') (A") (A") (A')
                 (A') (A") (A') (A") (A') (A') (A") (A') (A') (A')
                 (A") (A') (A') (A") (A") (A') (A") (A') (A') (A')
                 (A') (A') (A") (A') (A') (A") (A') (A") (A") (A')
                 (A') (A") (A") (A') (A') (A") (A") (A') (A') (A")
                 (A') (A") (A') (A') (A') (A') (A') (A') (A')
 The electronic state of the initial guess is 1-A'.
 Keep R1 ints in memory in symmetry-blocked form, NReq=128070129.
 Requested convergence on RMS density matrix=1.00D-08 within 128 cycles.
 Requested convergence on MAX density matrix=1.00D-06.
 Requested convergence on             energy=1.00D-06.
 No special actions if energy rises.
 SCF Done:  E(RHF) =  -188.263032269     A.U. after   11 cycles
            NFock= 11  Conv=0.75D-08     -V/T= 2.0027
 ExpMin= 2.53D-02 ExpMax= 1.53D+04 ExpMxC= 5.22D+02 IAcc=3 IRadAn=         5 AccDes= 0.00D+00
 HarFok:  IExCor=  205 AccDes= 0.00D+00 IRadAn=         5 IDoV=-2 UseB2=F ITyADJ=14
 ICtDFT= 12500011 ScaDFX=  1.000000  1.000000  1.000000  1.000000
 Range of M.O.s used for correlation:     4   161
 NBasis=   161 NAE=    12 NBE=    12 NFC=     3 NFV=     0
 NROrb=    158 NOA=     9 NOB=     9 NVA=   149 NVB=   149

 **** Warning!!: The largest alpha MO coefficient is  0.24451916D+02

 Disk-based method using ON**2 memory for  9 occupieds at a time.
 Permanent disk used for amplitudes=     3924660 words.
 Estimated scratch disk usage=   113146432 words.
 Actual    scratch disk usage=   109232192 words.
 JobTyp=1 Pass  1:  I=   4 to  12 NPSUse=  2 ParTrn=T ParDer=T DoDerP=T.
 (rs|ai) integrals will be sorted in core.
 Spin components of T(2) and E(2):
     alpha-alpha T2 =       0.2510341443D-01 E2=     -0.8648667139D-01
     alpha-beta  T2 =       0.1326439322D+00 E2=     -0.4874895778D+00
     beta-beta   T2 =       0.2510341443D-01 E2=     -0.8648667139D-01
 ANorm=    0.1087589427D+01
 E2 =    -0.6604629205D+00 EUMP2 =    -0.18892349518908D+03
 G2DrvN: will do     5 centers at a time, making    1 passes.
 Calling FoFCou, ICntrl=  3107 FMM=F I1Cent=   0 AccDes= 0.00D+00.
 End of G2Drv F.D. properties file   721 does not exist.
 End of G2Drv F.D. properties file   722 does not exist.
 End of G2Drv F.D. properties file   788 does not exist.
          IDoAtm=1111
          Differentiating once with respect to electric field.
                with respect to dipole field.
          Differentiating once with respect to nuclear coordinates.
 Keep R1 ints in memory in symmetry-blocked form, NReq=128071153.
          There are    15 degrees of freedom in the 1st order CPHF.  IDoFFX=6 NUNeed=    15.
     12 vectors produced by pass  0 Test12= 1.19D-14 6.67D-09 XBig12= 9.49D+00 1.35D+00.
 AX will form    12 AO Fock derivatives at one time.
     12 vectors produced by pass  1 Test12= 1.19D-14 6.67D-09 XBig12= 1.16D+00 2.75D-01.
     12 vectors produced by pass  2 Test12= 1.19D-14 6.67D-09 XBig12= 3.19D-02 3.68D-02.
     12 vectors produced by pass  3 Test12= 1.19D-14 6.67D-09 XBig12= 9.18D-04 6.48D-03.
     12 vectors produced by pass  4 Test12= 1.19D-14 6.67D-09 XBig12= 1.71D-05 8.96D-04.
     12 vectors produced by pass  5 Test12= 1.19D-14 6.67D-09 XBig12= 2.72D-07 1.54D-04.
     12 vectors produced by pass  6 Test12= 1.19D-14 6.67D-09 XBig12= 2.72D-09 1.63D-05.
      8 vectors produced by pass  7 Test12= 1.19D-14 6.67D-09 XBig12= 2.60D-11 1.44D-06.
      4 vectors produced by pass  8 Test12= 1.19D-14 6.67D-09 XBig12= 2.26D-13 1.09D-07.
      1 vectors produced by pass  9 Test12= 1.19D-14 6.67D-09 XBig12= 2.19D-15 1.53D-08.
 InvSVY:  IOpt=1 It=  1 EMax= 8.88D-16
 Solved reduced A of dimension    97 with    12 vectors.
 End of Minotr F.D. properties file   721 does not exist.
 End of Minotr F.D. properties file   722 does not exist.
 End of Minotr F.D. properties file   788 does not exist.
 MDV=   536870912.
 Form MO integral derivatives with frozen-active canonical formalism.
 Discarding MO integrals.
 Reordered first order wavefunction length =      6393888
 In DefCFB: NBatch=  1 ICI= 12 ICA=149 LFMax= 50
            Large arrays: LIAPS=   218779680 LIARS=   130792200 words.
 Semi-Direct transformation.
 ModeAB=           2 MOrb=            12 LenV=     536063203
 LASXX=     23759367 LTotXX=    23759367 LenRXX=    23759367
 LTotAB=    24195042 MaxLAS=    35056140 LenRXY=    35056140
 NonZer=    47518734 LenScr=    72043008 LnRSAI=           0
 LnScr1=           0 LExtra=           0 Total=    130858515
 MaxDsk=          -1 SrtSym=           F ITran=            4
 JobTyp=0 Pass  1:  I=   1 to  12.
 (rs|ai) integrals will be sorted in core.
 Spin components of T(2) and E(2):
     alpha-alpha T2 =       0.2510341443D-01 E2=     -0.8648667139D-01
     alpha-beta  T2 =       0.1326439322D+00 E2=     -0.4874895778D+00
     beta-beta   T2 =       0.2510341443D-01 E2=     -0.8648667139D-01
 ANorm=    0.1538083718D+01
 E2 =    -0.6604629205D+00 EUMP2 =    -0.18892349518908D+03
          IDoAtm=1111
          Differentiating once with respect to electric field.
                with respect to dipole field.
          Differentiating once with respect to nuclear coordinates.
          There are     1 degrees of freedom in the 1st order CPHF.  IDoFFX=0 NUNeed=     1.
 LinEq1:  Iter=  0 NonCon=     1 RMS=6.56D-03 Max=1.04D-01 NDo=     1
 LinEq1:  Iter=  1 NonCon=     1 RMS=1.68D-03 Max=1.93D-02 NDo=     1
 LinEq1:  Iter=  2 NonCon=     1 RMS=5.82D-04 Max=6.81D-03 NDo=     1
 LinEq1:  Iter=  3 NonCon=     1 RMS=2.16D-04 Max=2.24D-03 NDo=     1
 LinEq1:  Iter=  4 NonCon=     1 RMS=6.45D-05 Max=8.09D-04 NDo=     1
 LinEq1:  Iter=  5 NonCon=     1 RMS=1.29D-05 Max=1.30D-04 NDo=     1
 LinEq1:  Iter=  6 NonCon=     1 RMS=2.80D-06 Max=3.14D-05 NDo=     1
 LinEq1:  Iter=  7 NonCon=     1 RMS=5.25D-07 Max=5.15D-06 NDo=     1
 LinEq1:  Iter=  8 NonCon=     1 RMS=8.00D-08 Max=7.79D-07 NDo=     1
 LinEq1:  Iter=  9 NonCon=     1 RMS=1.31D-08 Max=1.54D-07 NDo=     1
 LinEq1:  Iter= 10 NonCon=     1 RMS=1.73D-09 Max=2.78D-08 NDo=     1
 LinEq1:  Iter= 11 NonCon=     1 RMS=2.03D-10 Max=3.48D-09 NDo=     1
 LinEq1:  Iter= 12 NonCon=     0 RMS=2.43D-11 Max=2.96D-10 NDo=     1
 Linear equations converged to 1.000D-10 1.000D-09 after    12 iterations.
 End of Minotr F.D. properties file   721 does not exist.
 End of Minotr F.D. properties file   722 does not exist.
 End of Minotr F.D. properties file   788 does not exist.
 Symmetrizing basis deriv contribution to polar:
 IMax=3 JMax=2 DiffMx= 0.00D+00
 G2DrvN: will do     5 centers at a time, making    1 passes.
 Calling FoFCou, ICntrl=  3107 FMM=F I1Cent=   0 AccDes= 0.00D+00.
 End of G2Drv F.D. properties file   721 does not exist.
 End of G2Drv F.D. properties file   722 does not exist.
 End of G2Drv F.D. properties file   788 does not exist.
 R2 and R3 integrals will be kept in memory, NReq=   332743010.
 DD1Dir will call FoFMem   1 times, MxPair=       156
 NAB=    78 NAA=     0 NBB=     0.
 Discarding MO integrals.

 **********************************************************************

            Population analysis using the SCF Density.

 **********************************************************************

 Orbital symmetries:
       Occupied  (A') (A') (A') (A') (A') (A') (A') (A') (A") (A')
                 (A") (A')
       Virtual   (A') (A') (A") (A') (A') (A') (A') (A") (A") (A')
                 (A') (A') (A") (A') (A") (A') (A') (A') (A') (A")
                 (A") (A') (A') (A") (A') (A') (A') (A') (A') (A")
                 (A') (A') (A") (A') (A") (A") (A') (A') (A") (A')
                 (A") (A') (A') (A") (A') (A') (A") (A') (A") (A')
                 (A') (A") (A') (A') (A') (A") (A") (A') (A') (A")
                 (A') (A') (A') (A") (A') (A') (A") (A') (A') (A")
                 (A") (A") (A") (A') (A') (A') (A') (A') (A') (A")
                 (A') (A") (A') (A") (A') (A') (A') (A") (A") (A')
                 (A') (A") (A') (A") (A') (A') (A') (A") (A') (A")
                 (A') (A") (A") (A') (A') (A") (A') (A') (A') (A')
                 (A") (A") (A') (A') (A') (A") (A') (A") (A') (A')
                 (A') (A') (A") (A') (A') (A") (A') (A") (A") (A')
                 (A') (A") (A") (A") (A') (A') (A') (A") (A') (A")
                 (A') (A") (A') (A') (A') (A') (A') (A') (A')
 The electronic state is 1-A'.
 Alpha  occ. eigenvalues --  -20.29818 -20.29815 -11.14742  -1.15995  -1.06649
 Alpha  occ. eigenvalues --   -0.53101  -0.42434  -0.39267  -0.34669  -0.21482
 Alpha  occ. eigenvalues --   -0.19429  -0.18507
 Alpha virt. eigenvalues --    0.14546   0.21281   0.21469   0.21619   0.28222
 Alpha virt. eigenvalues --    0.31728   0.32802   0.33723   0.36433   0.37273
 Alpha virt. eigenvalues --    0.39211   0.40645   0.42024   0.45509   0.48825
 Alpha virt. eigenvalues --    0.49340   0.51526   0.55080   0.56649   0.58885
 Alpha virt. eigenvalues --    0.61912   0.69252   0.69252   0.71239   0.76458
 Alpha virt. eigenvalues --    0.82364   0.85740   0.90953   0.91985   0.96079
 Alpha virt. eigenvalues --    0.97547   1.00622   1.04648   1.06204   1.06352
 Alpha virt. eigenvalues --    1.11822   1.12491   1.12772   1.12988   1.15862
 Alpha virt. eigenvalues --    1.19794   1.20073   1.20848   1.24020   1.25733
 Alpha virt. eigenvalues --    1.27619   1.31932   1.38514   1.40801   1.43007
 Alpha virt. eigenvalues --    1.43031   1.55497   1.55986   1.60665   1.65931
 Alpha virt. eigenvalues --    1.69470   1.75157   1.78462   1.79632   1.86192
 Alpha virt. eigenvalues --    1.91846   1.98401   2.02277   2.07582   2.08316
 Alpha virt. eigenvalues --    2.24450   2.40594   2.41125   2.44411   2.49499
 Alpha virt. eigenvalues --    2.56464   2.60891   2.62560   2.64077   2.64341
 Alpha virt. eigenvalues --    2.70310   2.72090   2.73079   2.79045   2.80783
 Alpha virt. eigenvalues --    2.85455   2.86933   2.88545   2.90049   2.97600
 Alpha virt. eigenvalues --    3.07711   3.11576   3.13283   3.14451   3.24769
 Alpha virt. eigenvalues --    3.27165   3.42767   3.43850   3.55877   3.67544
 Alpha virt. eigenvalues --    3.78378   3.79863   3.83387   3.98727   3.99825
 Alpha virt. eigenvalues --    4.12684   4.26484   4.27268   4.27419   4.28168
 Alpha virt. eigenvalues --    4.42781   4.45223   4.46713   4.71083   4.74355
 Alpha virt. eigenvalues --    4.75253   4.97969   5.06520   5.10527   5.18317
 Alpha virt. eigenvalues --    5.24802   5.28733   5.36100   5.52448   6.01688
 Alpha virt. eigenvalues --    6.47885   6.52570   6.83925   6.84899   6.85959
 Alpha virt. eigenvalues --    6.86775   7.06520   7.08290   7.09791   7.16863
 Alpha virt. eigenvalues --    7.25042   7.28181   7.36571   7.41602   7.42503
 Alpha virt. eigenvalues --    7.46678   7.52934   7.54029   7.70759   7.78307
 Alpha virt. eigenvalues --    7.84275   7.84335   7.92506   7.99594   8.11137
 Alpha virt. eigenvalues --    8.15537  13.55720  14.56595  16.01866
          Condensed to atoms (all electrons):
               1          2          3          4
     1  C    4.638847   0.426863   0.426863   0.366268
     2  O    0.426863   8.385636  -0.111244  -0.048418
     3  O    0.426863  -0.111244   8.385636  -0.048418
     4  H    0.366268  -0.048418  -0.048418   0.566051
 Mulliken charges:
               1
     1  C    0.141159
     2  O   -0.652838
     3  O   -0.652838
     4  H    0.164517
 Sum of Mulliken charges =  -1.00000
 Mulliken charges with hydrogens summed into heavy atoms:
               1
     1  C    0.305676
     2  O   -0.652838
     3  O   -0.652838
 APT charges:
               1
     1  C    1.381885
     2  O   -1.037049
     3  O   -1.037049
     4  H   -0.307787
 Sum of APT charges =  -1.00000
 APT charges with hydrogens summed into heavy atoms:
               1
     1  C    1.074097
     2  O   -1.037049
     3  O   -1.037049
 Electronic spatial extent (au):  <R**2>=            140.0003
 Charge=             -1.0000 electrons
 Dipole moment (field-independent basis, Debye):
    X=              0.0000    Y=              1.4141    Z=              0.0000  Tot=              1.4141
 Quadrupole moment (field-independent basis, Debye-Ang):
   XX=            -29.5038   YY=            -21.0690   ZZ=            -19.0894
   XY=              0.0000   XZ=              0.0000   YZ=              0.0000
 Traceless Quadrupole moment (field-independent basis, Debye-Ang):
   XX=             -6.2831   YY=              2.1517   ZZ=              4.1313
   XY=              0.0000   XZ=              0.0000   YZ=              0.0000
 Octapole moment (field-independent basis, Debye-Ang**2):
  XXX=              0.0000  YYY=             -3.7524  ZZZ=              0.0000  XYY=              0.0000
  XXY=              0.5467  XXZ=              0.0000  XZZ=              0.0000  YZZ=             -0.7937
  YYZ=              0.0000  XYZ=              0.0000
 Hexadecapole moment (field-independent basis, Debye-Ang**3):
 XXXX=           -136.9671 YYYY=            -52.1311 ZZZZ=            -20.1182 XXXY=              0.0000
 XXXZ=              0.0000 YYYX=              0.0000 YYYZ=              0.0000 ZZZX=              0.0000
 ZZZY=              0.0000 XXYY=            -29.2953 XXZZ=            -24.8196 YYZZ=            -11.6635
 XXYZ=              0.0000 YYXZ=              0.0000 ZZXY=              0.0000
 N-N= 6.166703381922D+01 E-N=-5.750988802222D+02  KE= 1.877568798781D+02
 Symmetry A'   KE= 1.800881598101D+02
 Symmetry A"   KE= 7.668720068013D+00
  Exact polarizability:  41.554   0.000  41.855   0.000   0.000  24.252
 Approx polarizability:  27.753   0.000  26.419   0.000   0.000  19.108
 Calling FoFJK, ICntrl=  10100127 FMM=F ISym2X=1 I1Cent= 0 IOpClX= 0 NMat=1 NMatS=1 NMatT=0.
 ***** Axes restored to original set *****
 -------------------------------------------------------------------
 Center     Atomic                   Forces (Hartrees/Bohr)
 Number     Number              X              Y              Z
 -------------------------------------------------------------------
      1        6          -0.025889300    0.000000000   -0.012022515
      2        8          -0.005305926    0.000000000   -0.010421877
      3        8          -0.011385903    0.000000000    0.002670474
      4        1           0.042581130    0.000000000    0.019773918
 -------------------------------------------------------------------
 Cartesian Forces:  Max     0.042581130 RMS     0.016564258
 -----------------------------------------------------------------------------------------------
                       Internal Coordinate Forces (Hartree/Bohr or radian)
  Cent   Atom   N1       Length/X         N2         Alpha/Y        N3         Beta/Z          J
 -----------------------------------------------------------------------------------------------
      1  C 
      2  O        1  -0.010422(     1)
      3  O        1  -0.010422(     2)      2   0.012617(     4)
      4  H        1  -0.046948(     3)      2   0.000000(     5)      3   0.000000(     6)     0
 -----------------------------------------------------------------------------------------------
 Internal  Forces:  Max     0.046948487 RMS     0.020738728

 GradGradGradGradGradGradGradGradGradGradGradGradGradGradGradGradGradGrad
 Berny optimization.
 Search for a local minimum.
 Step number   1 out of a maximum of   20
 All quantities printed in internal units (Hartrees-Bohrs-Radians)
 Second derivative matrix not updated -- analytic derivatives used.
 The second derivative matrix:
                          R1        A1        A2        R2
           R1           1.38001
           A1           0.09438   0.46997
           A2           0.00000   0.14464   0.28928
           R2           0.07371  -0.04648   0.00000   0.09268
 ITU=  0
     Eigenvalues ---    0.20727   0.54209   1.389901000.00000
 RFO step:  Lambda=-8.17290667D-04 EMin= 2.07272260D-01
 Linear search not attempted -- first point.
 Variable       Old X    -DE/DX   Delta X   Delta X   Delta X     New X
                                 (Linear)    (Quad)   (Total)
    R1        2.37778  -0.02084   0.00000  -0.01754  -0.01754   2.36024
    A1        2.27209   0.01262   0.00000   0.03580   0.03580   2.30789
    A2        2.00555   0.00000   0.00000  -0.01785  -0.01785   1.98770
    R2        2.40940  -0.04695   0.00000   0.00000   0.00000   2.40940
         Item               Value     Threshold  Converged?
 Maximum Force            0.020844     0.000450     NO 
 RMS     Force            0.014067     0.000300     NO 
 Maximum Displacement     0.035799     0.001800     NO 
 RMS     Displacement     0.021839     0.001200     NO 
 Predicted change in Energy=-4.094265D-04
 GradGradGradGradGradGradGradGradGradGradGradGradGradGradGradGradGradGrad

 ---------------------------------------------------------------------------------------------------
                            Z-MATRIX (ANGSTROMS AND DEGREES)
   CD    Cent   Atom    N1       Length/X        N2       Alpha/Y        N3        Beta/Z          J
 ---------------------------------------------------------------------------------------------------
      1      1  C 
      2      2  O        1   1.248987(     1)
      3      3  O        1   1.248987(     2)      2  132.232(     4)
      4      4  H        1   1.275000(     3)      2  113.887(     5)      3  180.000(     6)      0
 ---------------------------------------------------------------------------------------------------
                         Z-Matrix orientation:                         
 ---------------------------------------------------------------------
 Center     Atomic      Atomic             Coordinates (Angstroms)
 Number     Number       Type             X           Y           Z
 ---------------------------------------------------------------------
      1          6           0        0.000000    0.000000    0.000000
      2          8           0        0.000000    0.000000    1.248987
      3          8           0        0.924782    0.000000   -0.839491
      4          1           0       -1.165793    0.000000   -0.516286
 ---------------------------------------------------------------------
                    Distance matrix (angstroms):
                    1          2          3          4
     1  C    0.000000
     2  O    1.248987   0.000000
     3  O    1.248987   2.284067   0.000000
     4  H    1.275000   2.115481   2.115412   0.000000
 Stoichiometry    CHO2(1-)
 Framework group  CS[SG(CHO2)]
 Deg. of freedom     5
 Full point group                 CS      NOp   2
 Largest Abelian subgroup         CS      NOp   2
 Largest concise Abelian subgroup C1      NOp   1
                         Standard orientation:                         
 ---------------------------------------------------------------------
 Center     Atomic      Atomic             Coordinates (Angstroms)
 Number     Number       Type             X           Y           Z
 ---------------------------------------------------------------------
      1          6           0        0.000000    0.296353    0.000000
      2          8           0       -1.142038   -0.209331    0.000000
      3          8           0        1.142029   -0.209353    0.000000
      4          1           0        0.000076    1.571353    0.000000
 ---------------------------------------------------------------------
 Rotational constants (GHZ):         103.3404906          12.1128854          10.8420521
 Standard basis: Aug-CC-pVTZ (5D, 7F)
 There are   129 symmetry adapted cartesian basis functions of A'  symmetry.
 There are    61 symmetry adapted cartesian basis functions of A"  symmetry.
 There are   106 symmetry adapted basis functions of A'  symmetry.
 There are    55 symmetry adapted basis functions of A"  symmetry.
   161 basis functions,   243 primitive gaussians,   190 cartesian basis functions
    12 alpha electrons       12 beta electrons
       nuclear repulsion energy        61.9940621347 Hartrees.
 NAtoms=    4 NActive=    4 NUniq=    4 SFac= 1.00D+00 NAtFMM=   60 NAOKFM=F Big=F
 Integral buffers will be    131072 words long.
 Raffenetti 1 integral format.
 Two-electron integral symmetry is turned on.
 One-electron integrals computed using PRISM.
 NBasis=   161 RedAO= T EigKep=  1.59D-04  NBF=   106    55
 NBsUse=   161 1.00D-06 EigRej= -1.00D+00 NBFU=   106    55
 Initial guess from the checkpoint file:  "C:\Users\Garrett\Downloads\NanoclusterOutput\Gau-21820.chk"
 B after Tr=     0.000000    0.000000    0.000000
         Rot=    1.000000    0.000000    0.000000    0.000007 Ang=   0.00 deg.
 Initial guess orbital symmetries:
       Occupied  (A') (A') (A') (A') (A') (A') (A') (A') (A") (A')
                 (A") (A')
       Virtual   (A') (A') (A") (A') (A') (A') (A') (A") (A") (A')
                 (A') (A') (A") (A') (A") (A') (A') (A') (A') (A")
                 (A") (A') (A') (A") (A') (A') (A') (A') (A') (A")
                 (A') (A') (A") (A') (A") (A") (A') (A') (A") (A')
                 (A") (A') (A') (A") (A') (A') (A") (A') (A") (A')
                 (A') (A") (A') (A') (A') (A") (A") (A') (A') (A")
                 (A') (A') (A') (A") (A') (A') (A") (A') (A') (A")
                 (A") (A") (A") (A') (A') (A') (A') (A') (A') (A")
                 (A') (A") (A') (A") (A') (A') (A') (A") (A") (A')
                 (A') (A") (A') (A") (A') (A') (A') (A") (A') (A")
                 (A') (A") (A") (A') (A') (A") (A') (A') (A') (A')
                 (A") (A") (A') (A') (A') (A") (A') (A") (A') (A')
                 (A') (A') (A") (A') (A') (A") (A') (A") (A") (A')
                 (A') (A") (A") (A") (A') (A') (A') (A") (A') (A")
                 (A') (A") (A') (A') (A') (A') (A') (A') (A')
 ExpMin= 2.53D-02 ExpMax= 1.53D+04 ExpMxC= 5.22D+02 IAcc=3 IRadAn=         5 AccDes= 0.00D+00
 Harris functional with IExCor=  205 and IRadAn=       5 diagonalized for initial guess.
 HarFok:  IExCor=  205 AccDes= 0.00D+00 IRadAn=         5 IDoV= 1 UseB2=F ITyADJ=14
 ICtDFT=  3500011 ScaDFX=  1.000000  1.000000  1.000000  1.000000
 FoFCou: FMM=F IPFlag=           0 FMFlag=      100000 FMFlg1=           0
         NFxFlg=           0 DoJE=T BraDBF=F KetDBF=T FulRan=T
         wScrn=  0.000000 ICntrl=       500 IOpCl=  0 I1Cent=   200000004 NGrid=           0
         NMat0=    1 NMatS0=      1 NMatT0=    0 NMatD0=    1 NMtDS0=    0 NMtDT0=    0
 Petite list used in FoFCou.
 Keep R1 ints in memory in symmetry-blocked form, NReq=128070129.
 Requested convergence on RMS density matrix=1.00D-08 within 128 cycles.
 Requested convergence on MAX density matrix=1.00D-06.
 Requested convergence on             energy=1.00D-06.
 No special actions if energy rises.
 SCF Done:  E(RHF) =  -188.264957917     A.U. after    9 cycles
            NFock=  9  Conv=0.76D-08     -V/T= 2.0024
 ExpMin= 2.53D-02 ExpMax= 1.53D+04 ExpMxC= 5.22D+02 IAcc=3 IRadAn=         5 AccDes= 0.00D+00
 HarFok:  IExCor=  205 AccDes= 0.00D+00 IRadAn=         5 IDoV=-2 UseB2=F ITyADJ=14
 ICtDFT= 12500011 ScaDFX=  1.000000  1.000000  1.000000  1.000000
 Range of M.O.s used for correlation:     4   161
 NBasis=   161 NAE=    12 NBE=    12 NFC=     3 NFV=     0
 NROrb=    158 NOA=     9 NOB=     9 NVA=   149 NVB=   149

 **** Warning!!: The largest alpha MO coefficient is  0.24250498D+02

 Fully direct method using O(ONN) memory.
 JobTyp=1 Pass  1:  I=   4 to  12 NPSUse=  2 ParTrn=T ParDer=T DoDerP=T.
 Spin components of T(2) and E(2):
     alpha-alpha T2 =       0.2489432214D-01 E2=     -0.8629933614D-01
     alpha-beta  T2 =       0.1315497811D+00 E2=     -0.4863434982D+00
     beta-beta   T2 =       0.2489432214D-01 E2=     -0.8629933614D-01
 ANorm=    0.1086893935D+01
 E2 =    -0.6589421704D+00 EUMP2 =    -0.18892390008723D+03
          IDoAtm=1111
          Differentiating once with respect to electric field.
                with respect to dipole field.
          Differentiating once with respect to nuclear coordinates.
 Keep R1 ints in memory in symmetry-blocked form, NReq=128071153.
          There are     1 degrees of freedom in the 1st order CPHF.  IDoFFX=0 NUNeed=     1.
 LinEq1:  Iter=  0 NonCon=     1 RMS=6.47D-03 Max=1.01D-01 NDo=     1
 AX will form     1 AO Fock derivatives at one time.
 LinEq1:  Iter=  1 NonCon=     1 RMS=1.64D-03 Max=1.79D-02 NDo=     1
 LinEq1:  Iter=  2 NonCon=     1 RMS=5.61D-04 Max=6.37D-03 NDo=     1
 LinEq1:  Iter=  3 NonCon=     1 RMS=2.04D-04 Max=2.06D-03 NDo=     1
 LinEq1:  Iter=  4 NonCon=     1 RMS=6.04D-05 Max=7.42D-04 NDo=     1
 LinEq1:  Iter=  5 NonCon=     1 RMS=1.15D-05 Max=1.14D-04 NDo=     1
 LinEq1:  Iter=  6 NonCon=     1 RMS=2.55D-06 Max=2.94D-05 NDo=     1
 LinEq1:  Iter=  7 NonCon=     1 RMS=4.89D-07 Max=4.72D-06 NDo=     1
 LinEq1:  Iter=  8 NonCon=     1 RMS=7.47D-08 Max=8.05D-07 NDo=     1
 LinEq1:  Iter=  9 NonCon=     1 RMS=1.25D-08 Max=1.37D-07 NDo=     1
 LinEq1:  Iter= 10 NonCon=     1 RMS=1.75D-09 Max=2.75D-08 NDo=     1
 LinEq1:  Iter= 11 NonCon=     1 RMS=5.60D-10 Max=8.50D-09 NDo=     1
 LinEq1:  Iter= 12 NonCon=     1 RMS=2.27D-10 Max=2.56D-09 NDo=     1
 LinEq1:  Iter= 13 NonCon=     0 RMS=3.32D-11 Max=4.80D-10 NDo=     1
 Linear equations converged to 1.000D-10 1.000D-09 after    13 iterations.
 End of Minotr F.D. properties file   721 does not exist.
 End of Minotr F.D. properties file   722 does not exist.
 End of Minotr F.D. properties file   788 does not exist.
 Calling FoFJK, ICntrl=  10002127 FMM=F ISym2X=1 I1Cent= 0 IOpClX= 0 NMat=1 NMatS=1 NMatT=0.
 ***** Axes restored to original set *****
 -------------------------------------------------------------------
 Center     Atomic                   Forces (Hartrees/Bohr)
 Number     Number              X              Y              Z
 -------------------------------------------------------------------
      1        6          -0.040362060    0.000000000   -0.017878682
      2        8          -0.000022727    0.000000000    0.000388329
      3        8           0.000280984    0.000000000   -0.000277040
      4        1           0.040103803    0.000000000    0.017767392
 -------------------------------------------------------------------
 Cartesian Forces:  Max     0.040362060 RMS     0.017965349
 -----------------------------------------------------------------------------------------------
                       Internal Coordinate Forces (Hartree/Bohr or radian)
  Cent   Atom   N1       Length/X         N2         Alpha/Y        N3         Beta/Z          J
 -----------------------------------------------------------------------------------------------
      1  C 
      2  O        1   0.000388(     1)
      3  O        1   0.000394(     2)      2   0.000038(     4)
      4  H        1  -0.043863(     3)      2  -0.000015(     5)      3   0.000000(     6)     0
 -----------------------------------------------------------------------------------------------
 Internal  Forces:  Max     0.043863370 RMS     0.017908579

 GradGradGradGradGradGradGradGradGradGradGradGradGradGradGradGradGradGrad
 Berny optimization.
 Search for a local minimum.
 Step number   2 out of a maximum of   20
 All quantities printed in internal units (Hartrees-Bohrs-Radians)
 Update second derivatives using D2CorN and points    1    2
 DE= -4.05D-04 DEPred=-4.09D-04 R= 9.89D-01
 TightC=F SS=  1.41D+00  RLast= 4.37D-02 DXNew= 5.0454D-01 1.3104D-01
 Trust test= 9.89D-01 RLast= 4.37D-02 DXMaxT set to 3.00D-01
 The second derivative matrix:
                          R1        A1        A2        R2
           R1           1.38734
           A1           0.08694   0.46980
           A2           0.00372   0.14469   0.28928
           R2           0.07430  -0.04768   0.00060   0.09268
 ITU=  1  0
     Eigenvalues ---    0.20770   0.54294   1.395781000.00000
 RFO step:  Lambda=-2.64825751D-07 EMin= 2.07698433D-01
 Quartic linear search produced a step of -0.01433.
 Variable       Old X    -DE/DX   Delta X   Delta X   Delta X     New X
                                 (Linear)    (Quad)   (Total)
    R1        2.36024   0.00078   0.00025   0.00031   0.00056   2.36080
    A1        2.30789   0.00004  -0.00051   0.00051   0.00000   2.30789
    A2        1.98770  -0.00002   0.00026  -0.00032  -0.00006   1.98764
    R2        2.40940  -0.04386   0.00000   0.00000   0.00000   2.40940
         Item               Value     Threshold  Converged?
 Maximum Force            0.000783     0.000450     NO 
 RMS     Force            0.000452     0.000300     NO 
 Maximum Displacement     0.000559     0.001800     YES
 RMS     Displacement     0.000282     0.001200     YES
 Predicted change in Energy=-2.212248D-07
 GradGradGradGradGradGradGradGradGradGradGradGradGradGradGradGradGradGrad

 ---------------------------------------------------------------------------------------------------
                            Z-MATRIX (ANGSTROMS AND DEGREES)
   CD    Cent   Atom    N1       Length/X        N2       Alpha/Y        N3        Beta/Z          J
 ---------------------------------------------------------------------------------------------------
      1      1  C 
      2      2  O        1   1.249283(     1)
      3      3  O        1   1.249283(     2)      2  132.232(     4)
      4      4  H        1   1.275000(     3)      2  113.883(     5)      3  180.000(     6)      0
 ---------------------------------------------------------------------------------------------------
                         Z-Matrix orientation:                         
 ---------------------------------------------------------------------
 Center     Atomic      Atomic             Coordinates (Angstroms)
 Number     Number       Type             X           Y           Z
 ---------------------------------------------------------------------
      1          6           0        0.000000    0.000000    0.000000
      2          8           0        0.000000    0.000000    1.249283
      3          8           0        0.925000    0.000000   -0.839691
      4          1           0       -1.165826    0.000000   -0.516212
 ---------------------------------------------------------------------
                    Distance matrix (angstroms):
                    1          2          3          4
     1  C    0.000000
     2  O    1.249283   0.000000
     3  O    1.249283   2.284609   0.000000
     4  H    1.275000   2.115685   2.115702   0.000000
 Stoichiometry    CHO2(1-)
 Framework group  CS[SG(CHO2)]
 Deg. of freedom     5
 Full point group                 CS      NOp   2
 Largest Abelian subgroup         CS      NOp   2
 Largest concise Abelian subgroup C1      NOp   1
                         Standard orientation:                         
 ---------------------------------------------------------------------
 Center     Atomic      Atomic             Coordinates (Angstroms)
 Number     Number       Type             X           Y           Z
 ---------------------------------------------------------------------
      1          6           0        0.000000    0.296436    0.000000
      2          8           0       -1.142303   -0.209381    0.000000
      3          8           0        1.142306   -0.209375    0.000000
      4          1           0       -0.000019    1.571436    0.000000
 ---------------------------------------------------------------------
 Rotational constants (GHZ):         103.3123960          12.1071371          10.8371375
 Standard basis: Aug-CC-pVTZ (5D, 7F)
 There are   129 symmetry adapted cartesian basis functions of A'  symmetry.
 There are    61 symmetry adapted cartesian basis functions of A"  symmetry.
 There are   106 symmetry adapted basis functions of A'  symmetry.
 There are    55 symmetry adapted basis functions of A"  symmetry.
   161 basis functions,   243 primitive gaussians,   190 cartesian basis functions
    12 alpha electrons       12 beta electrons
       nuclear repulsion energy        61.9804392934 Hartrees.
 NAtoms=    4 NActive=    4 NUniq=    4 SFac= 1.00D+00 NAtFMM=   60 NAOKFM=F Big=F
 Integral buffers will be    131072 words long.
 Raffenetti 1 integral format.
 Two-electron integral symmetry is turned on.
 One-electron integrals computed using PRISM.
 NBasis=   161 RedAO= T EigKep=  1.59D-04  NBF=   106    55
 NBsUse=   161 1.00D-06 EigRej= -1.00D+00 NBFU=   106    55
 Initial guess from the checkpoint file:  "C:\Users\Garrett\Downloads\NanoclusterOutput\Gau-21820.chk"
 B after Tr=     0.000000    0.000000    0.000000
         Rot=    1.000000    0.000000    0.000000   -0.000008 Ang=   0.00 deg.
 Initial guess orbital symmetries:
       Occupied  (A') (A') (A') (A') (A') (A') (A') (A') (A") (A')
                 (A") (A')
       Virtual   (A') (A') (A") (A') (A') (A') (A') (A") (A") (A')
                 (A') (A') (A") (A') (A") (A') (A') (A') (A') (A")
                 (A") (A') (A') (A") (A') (A') (A') (A') (A') (A")
                 (A') (A') (A") (A') (A") (A") (A') (A') (A") (A')
                 (A') (A") (A') (A") (A') (A') (A") (A') (A") (A')
                 (A') (A") (A') (A') (A') (A") (A") (A') (A') (A")
                 (A') (A') (A') (A") (A') (A') (A") (A') (A') (A")
                 (A") (A") (A") (A') (A') (A') (A') (A') (A") (A')
                 (A') (A") (A') (A") (A') (A') (A') (A") (A") (A')
                 (A') (A") (A') (A") (A') (A') (A') (A") (A') (A")
                 (A') (A') (A") (A") (A') (A") (A') (A') (A') (A')
                 (A") (A") (A') (A') (A') (A") (A') (A") (A') (A')
                 (A') (A') (A") (A') (A') (A") (A') (A") (A") (A')
                 (A') (A") (A") (A') (A") (A') (A') (A") (A') (A")
                 (A') (A") (A') (A') (A') (A') (A') (A') (A')
 Keep R1 ints in memory in symmetry-blocked form, NReq=128070129.
 Requested convergence on RMS density matrix=1.00D-08 within 128 cycles.
 Requested convergence on MAX density matrix=1.00D-06.
 Requested convergence on             energy=1.00D-06.
 No special actions if energy rises.
 SCF Done:  E(RHF) =  -188.264906807     A.U. after    7 cycles
            NFock=  7  Conv=0.21D-08     -V/T= 2.0024
 ExpMin= 2.53D-02 ExpMax= 1.53D+04 ExpMxC= 5.22D+02 IAcc=3 IRadAn=         5 AccDes= 0.00D+00
 HarFok:  IExCor=  205 AccDes= 0.00D+00 IRadAn=         5 IDoV=-2 UseB2=F ITyADJ=14
 ICtDFT= 12500011 ScaDFX=  1.000000  1.000000  1.000000  1.000000
 Range of M.O.s used for correlation:     4   161
 NBasis=   161 NAE=    12 NBE=    12 NFC=     3 NFV=     0
 NROrb=    158 NOA=     9 NOB=     9 NVA=   149 NVB=   149

 **** Warning!!: The largest alpha MO coefficient is  0.24284460D+02

 Fully direct method using O(ONN) memory.
 JobTyp=1 Pass  1:  I=   4 to  12 NPSUse=  2 ParTrn=T ParDer=T DoDerP=T.
 Spin components of T(2) and E(2):
     alpha-alpha T2 =       0.2490145965D-01 E2=     -0.8630583871D-01
     alpha-beta  T2 =       0.1315855987D+00 E2=     -0.4863818019D+00
     beta-beta   T2 =       0.2490145965D-01 E2=     -0.8630583871D-01
 ANorm=    0.1086916978D+01
 E2 =    -0.6589934793D+00 EUMP2 =    -0.18892390028665D+03
          IDoAtm=1111
          Differentiating once with respect to electric field.
                with respect to dipole field.
          Differentiating once with respect to nuclear coordinates.
 Keep R1 ints in memory in symmetry-blocked form, NReq=128071153.
          There are     1 degrees of freedom in the 1st order CPHF.  IDoFFX=0 NUNeed=     1.
 LinEq1:  Iter=  0 NonCon=     1 RMS=6.47D-03 Max=1.01D-01 NDo=     1
 AX will form     1 AO Fock derivatives at one time.
 LinEq1:  Iter=  1 NonCon=     1 RMS=1.64D-03 Max=1.80D-02 NDo=     1
 LinEq1:  Iter=  2 NonCon=     1 RMS=5.62D-04 Max=6.38D-03 NDo=     1
 LinEq1:  Iter=  3 NonCon=     1 RMS=2.05D-04 Max=2.06D-03 NDo=     1
 LinEq1:  Iter=  4 NonCon=     1 RMS=6.05D-05 Max=7.43D-04 NDo=     1
 LinEq1:  Iter=  5 NonCon=     1 RMS=1.16D-05 Max=1.14D-04 NDo=     1
 LinEq1:  Iter=  6 NonCon=     1 RMS=2.55D-06 Max=2.94D-05 NDo=     1
 LinEq1:  Iter=  7 NonCon=     1 RMS=4.90D-07 Max=4.72D-06 NDo=     1
 LinEq1:  Iter=  8 NonCon=     1 RMS=7.48D-08 Max=8.06D-07 NDo=     1
 LinEq1:  Iter=  9 NonCon=     1 RMS=1.25D-08 Max=1.37D-07 NDo=     1
 LinEq1:  Iter= 10 NonCon=     1 RMS=1.67D-09 Max=2.74D-08 NDo=     1
 LinEq1:  Iter= 11 NonCon=     1 RMS=2.41D-10 Max=3.20D-09 NDo=     1
 LinEq1:  Iter= 12 NonCon=     1 RMS=1.14D-10 Max=1.69D-09 NDo=     1
 LinEq1:  Iter= 13 NonCon=     0 RMS=3.23D-11 Max=4.59D-10 NDo=     1
 Linear equations converged to 1.000D-10 1.000D-09 after    13 iterations.
 End of Minotr F.D. properties file   721 does not exist.
 End of Minotr F.D. properties file   722 does not exist.
 End of Minotr F.D. properties file   788 does not exist.
 Calling FoFJK, ICntrl=  10002127 FMM=F ISym2X=1 I1Cent= 0 IOpClX= 0 NMat=1 NMatS=1 NMatT=0.
 ***** Axes restored to original set *****
 -------------------------------------------------------------------
 Center     Atomic                   Forces (Hartrees/Bohr)
 Number     Number              X              Y              Z
 -------------------------------------------------------------------
      1        6          -0.040139349    0.000000000   -0.017772149
      2        8           0.000001967    0.000000000   -0.000014471
      3        8          -0.000011549    0.000000000    0.000010959
      4        1           0.040148931    0.000000000    0.017775660
 -------------------------------------------------------------------
 Cartesian Forces:  Max     0.040148931 RMS     0.017923281
 -----------------------------------------------------------------------------------------------
                       Internal Coordinate Forces (Hartree/Bohr or radian)
  Cent   Atom   N1       Length/X         N2         Alpha/Y        N3         Beta/Z          J
 -----------------------------------------------------------------------------------------------
      1  C 
      2  O        1  -0.000014(     1)
      3  O        1  -0.000016(     2)      2  -0.000001(     4)
      4  H        1  -0.043908(     3)      2   0.000004(     5)      3   0.000000(     6)     0
 -----------------------------------------------------------------------------------------------
 Internal  Forces:  Max     0.043907981 RMS     0.017925360

 GradGradGradGradGradGradGradGradGradGradGradGradGradGradGradGradGradGrad
 Berny optimization.
 Search for a local minimum.
 Step number   3 out of a maximum of   20
 All quantities printed in internal units (Hartrees-Bohrs-Radians)
 Update second derivatives using D2CorN and points    1    3
 DE= -1.99D-07 DEPred=-2.21D-07 R= 9.01D-01
 Trust test= 9.01D-01 RLast= 5.63D-04 DXMaxT set to 3.00D-01
 The second derivative matrix:
                          R1        A1        A2        R2
           R1           1.39002
           A1           0.08471   0.46727
           A2           0.00486   0.14590   0.28870
           R2           0.07458  -0.04826   0.00089   0.09268
 ITU=  0  1  0
     Eigenvalues ---    0.20575   0.54221   1.398041000.00000
 RFO step:  Lambda= 0.00000000D+00 EMin= 2.05745960D-01
 Quartic linear search produced a step of -0.04395.
 Variable       Old X    -DE/DX   Delta X   Delta X   Delta X     New X
                                 (Linear)    (Quad)   (Total)
    R1        2.36080  -0.00003  -0.00002   0.00000  -0.00002   2.36078
    A1        2.30789   0.00000   0.00000   0.00000   0.00000   2.30789
    A2        1.98764   0.00000   0.00000   0.00001   0.00002   1.98765
    R2        2.40940  -0.04391   0.00000   0.00000   0.00000   2.40940
         Item               Value     Threshold  Converged?
 Maximum Force            0.000030     0.000450     YES
 RMS     Force            0.000018     0.000300     YES
 Maximum Displacement     0.000024     0.001800     YES
 RMS     Displacement     0.000015     0.001200     YES
 Predicted change in Energy=-3.555496D-10
 Optimization completed.
    -- Stationary point found.
                       ----------------------------
                       !   Optimized Parameters   !
                       ! (Angstroms and Degrees)  !
 ----------------------                            ----------------------
 !      Name          Value   Derivative information (Atomic Units)     !
 ------------------------------------------------------------------------
 !       R1          1.2493   -DE/DX =    0.0                           !
 !       A1        132.2324   -DE/DX =    0.0                           !
 !       A2        113.8831   -DE/DX =    0.0                           !
 !       R2          1.275    -DE/DX =   -0.0439                        !
 ------------------------------------------------------------------------
 GradGradGradGradGradGradGradGradGradGradGradGradGradGradGradGradGradGrad

 ---------------------------------------------------------------------------------------------------
                            Z-MATRIX (ANGSTROMS AND DEGREES)
   CD    Cent   Atom    N1       Length/X        N2       Alpha/Y        N3        Beta/Z          J
 ---------------------------------------------------------------------------------------------------
      1      1  C 
      2      2  O        1   1.249283(     1)
      3      3  O        1   1.249283(     2)      2  132.232(     4)
      4      4  H        1   1.275000(     3)      2  113.883(     5)      3  180.000(     6)      0
 ---------------------------------------------------------------------------------------------------
                         Z-Matrix orientation:                         
 ---------------------------------------------------------------------
 Center     Atomic      Atomic             Coordinates (Angstroms)
 Number     Number       Type             X           Y           Z
 ---------------------------------------------------------------------
      1          6           0        0.000000    0.000000    0.000000
      2          8           0        0.000000    0.000000    1.249283
      3          8           0        0.925000    0.000000   -0.839691
      4          1           0       -1.165826    0.000000   -0.516212
 ---------------------------------------------------------------------
                    Distance matrix (angstroms):
                    1          2          3          4
     1  C    0.000000
     2  O    1.249283   0.000000
     3  O    1.249283   2.284609   0.000000
     4  H    1.275000   2.115685   2.115702   0.000000
 Stoichiometry    CHO2(1-)
 Framework group  CS[SG(CHO2)]
 Deg. of freedom     5
 Full point group                 CS      NOp   2
 Largest Abelian subgroup         CS      NOp   2
 Largest concise Abelian subgroup C1      NOp   1
                         Standard orientation:                         
 ---------------------------------------------------------------------
 Center     Atomic      Atomic             Coordinates (Angstroms)
 Number     Number       Type             X           Y           Z
 ---------------------------------------------------------------------
      1          6           0        0.000000    0.296436    0.000000
      2          8           0       -1.142303   -0.209381    0.000000
      3          8           0        1.142306   -0.209375    0.000000
      4          1           0       -0.000019    1.571436    0.000000
 ---------------------------------------------------------------------
 Rotational constants (GHZ):         103.3123960          12.1071371          10.8371375

 **********************************************************************

            Population analysis using the SCF Density.

 **********************************************************************

 Orbital symmetries:
       Occupied  (A') (A') (A') (A') (A') (A') (A') (A') (A") (A')
                 (A") (A')
       Virtual   (A') (A') (A") (A') (A') (A') (A') (A") (A") (A')
                 (A') (A') (A") (A') (A") (A') (A') (A') (A') (A")
                 (A") (A') (A') (A") (A') (A') (A') (A') (A') (A")
                 (A') (A') (A") (A') (A") (A") (A') (A') (A") (A')
                 (A') (A") (A') (A") (A') (A') (A") (A') (A") (A')
                 (A') (A") (A') (A') (A') (A") (A") (A') (A') (A")
                 (A') (A') (A') (A") (A') (A') (A") (A') (A') (A")
                 (A") (A") (A") (A') (A') (A') (A') (A') (A") (A')
                 (A') (A") (A') (A") (A') (A') (A') (A") (A") (A')
                 (A') (A") (A') (A") (A') (A') (A') (A") (A') (A")
                 (A') (A') (A") (A") (A') (A") (A') (A') (A') (A')
                 (A") (A") (A') (A') (A') (A") (A') (A") (A') (A')
                 (A') (A') (A") (A') (A') (A") (A') (A") (A") (A')
                 (A') (A") (A") (A') (A") (A') (A') (A") (A') (A")
                 (A') (A") (A') (A') (A') (A') (A') (A') (A')
 The electronic state is 1-A'.
 Alpha  occ. eigenvalues --  -20.29861 -20.29858 -11.14508  -1.16525  -1.07367
 Alpha  occ. eigenvalues --   -0.52926  -0.42676  -0.39693  -0.35120  -0.21831
 Alpha  occ. eigenvalues --   -0.19715  -0.18067
 Alpha virt. eigenvalues --    0.14632   0.21292   0.21468   0.21568   0.28305
 Alpha virt. eigenvalues --    0.31717   0.32723   0.33549   0.36699   0.37545
 Alpha virt. eigenvalues --    0.39040   0.40660   0.42265   0.45674   0.49106
 Alpha virt. eigenvalues --    0.49252   0.51672   0.54983   0.56964   0.58540
 Alpha virt. eigenvalues --    0.62281   0.69393   0.69455   0.71118   0.76523
 Alpha virt. eigenvalues --    0.82666   0.85472   0.91127   0.92578   0.95552
 Alpha virt. eigenvalues --    0.98079   1.00281   1.04829   1.05852   1.05893
 Alpha virt. eigenvalues --    1.11950   1.12773   1.12882   1.13422   1.16393
 Alpha virt. eigenvalues --    1.19986   1.20485   1.21154   1.23823   1.26598
 Alpha virt. eigenvalues --    1.27096   1.32558   1.37708   1.40652   1.43282
 Alpha virt. eigenvalues --    1.43330   1.54918   1.56708   1.61549   1.66028
 Alpha virt. eigenvalues --    1.69534   1.76135   1.78839   1.79987   1.86149
 Alpha virt. eigenvalues --    1.92563   1.98963   2.01866   2.08267   2.09182
 Alpha virt. eigenvalues --    2.22304   2.40207   2.40407   2.45434   2.50636
 Alpha virt. eigenvalues --    2.56566   2.60858   2.62427   2.63745   2.64405
 Alpha virt. eigenvalues --    2.70164   2.72371   2.72792   2.80723   2.82119
 Alpha virt. eigenvalues --    2.85859   2.87675   2.90012   2.90544   2.96378
 Alpha virt. eigenvalues --    3.08387   3.11582   3.13926   3.14558   3.24868
 Alpha virt. eigenvalues --    3.27053   3.42162   3.44239   3.55906   3.68577
 Alpha virt. eigenvalues --    3.79993   3.80553   3.84256   3.99113   3.99817
 Alpha virt. eigenvalues --    4.13092   4.27688   4.27849   4.28218   4.29255
 Alpha virt. eigenvalues --    4.43480   4.47577   4.47842   4.74245   4.74861
 Alpha virt. eigenvalues --    4.75674   4.97869   5.06572   5.11349   5.20417
 Alpha virt. eigenvalues --    5.26314   5.29923   5.40856   5.56307   6.02008
 Alpha virt. eigenvalues --    6.47705   6.53036   6.83368   6.84333   6.86400
 Alpha virt. eigenvalues --    6.87022   7.06217   7.09064   7.10210   7.17194
 Alpha virt. eigenvalues --    7.26191   7.30351   7.37485   7.41994   7.42421
 Alpha virt. eigenvalues --    7.46736   7.53736   7.54102   7.73856   7.78417
 Alpha virt. eigenvalues --    7.83683   7.85495   7.93012   8.00143   8.14673
 Alpha virt. eigenvalues --    8.15377  13.82346  14.77481  16.14049
          Condensed to atoms (all electrons):
               1          2          3          4
     1  C    4.641712   0.425392   0.425394   0.370143
     2  O    0.425392   8.385480  -0.111257  -0.054605
     3  O    0.425394  -0.111257   8.385476  -0.054603
     4  H    0.370143  -0.054605  -0.054603   0.586406
 Mulliken charges:
               1
     1  C    0.137360
     2  O   -0.645010
     3  O   -0.645009
     4  H    0.152659
 Sum of Mulliken charges =  -1.00000
 Mulliken charges with hydrogens summed into heavy atoms:
               1
     1  C    0.290019
     2  O   -0.645010
     3  O   -0.645009
 Electronic spatial extent (au):  <R**2>=            139.5867
 Charge=             -1.0000 electrons
 Dipole moment (field-independent basis, Debye):
    X=              0.0000    Y=              1.2466    Z=              0.0000  Tot=              1.2466
 Quadrupole moment (field-independent basis, Debye-Ang):
   XX=            -29.3873   YY=            -21.2675   ZZ=            -19.0513
   XY=              0.0000   XZ=              0.0000   YZ=              0.0000
 Traceless Quadrupole moment (field-independent basis, Debye-Ang):
   XX=             -6.1519   YY=              1.9679   ZZ=              4.1841
   XY=              0.0000   XZ=              0.0000   YZ=              0.0000
 Octapole moment (field-independent basis, Debye-Ang**2):
  XXX=              0.0000  YYY=             -4.2138  ZZZ=              0.0000  XYY=              0.0000
  XXY=              0.5685  XXZ=              0.0000  XZZ=              0.0000  YZZ=             -0.8444
  YYZ=              0.0000  XYZ=              0.0000
 Hexadecapole moment (field-independent basis, Debye-Ang**3):
 XXXX=           -136.3162 YYYY=            -52.5859 ZZZZ=            -20.0605 XXXY=             -0.0001
 XXXZ=              0.0000 YYYX=             -0.0001 YYYZ=              0.0000 ZZZX=              0.0000
 ZZZY=              0.0000 XXYY=            -29.2608 XXZZ=            -24.7162 YYZZ=            -11.6424
 XXYZ=              0.0000 YYXZ=              0.0000 ZZXY=              0.0000
 N-N= 6.198043929342D+01 E-N=-5.757458487166D+02  KE= 1.878180787259D+02
 Symmetry A'   KE= 1.801358587958D+02
 Symmetry A"   KE= 7.682219930047D+00
 1|1|UNPC-DESKTOP-F4NP0R6|POpt|RMP2-FC|Aug-CC-pVTZ|C1H1O2(1-)|GARRETT|2
 3-Jul-2018|1||# MP2 Aug-cc-pvTZ opt=(noeigen,calcfc,z-matrix)||Formate
 ||-1,1|C|O,1,R1|O,1,R1,2,A1|H,1,R2,2,A2,3,180.,0||R1=1.24928272|A1=132
 .23235925|A2=113.88309995|R2=1.275||Version=EM64W-G16RevB.01|State=1-A
 '|HF=-188.2649068|MP2=-188.9239003|RMSD=2.112e-009|RMSF=1.792e-002|Dip
 ole=-0.2981482,0.,-0.1320211|PG=CS [SG(C1H1O2)]||@


 WE MIGHT AS WELL ATTEMPT TO INTRODUCE A NEW PLANET 
 INTO THE SOLAR SYSTEM, OR TO ANNIHILATE ONE ALREADYIN EXISTENCE, 
 AS TO CREATE OR DESTROY A PARTICLE OF HYDROGEN.
 ALL THE CHANGES WE CAN PRODUCE CONSIST IN SEPARATING PARTICLES
 THAT ARE IN A STATE OF ... COMBINATION, AND JOINING 
 THOSE THAT WERE PREVIOUSLY AT A DISTANCE.

                                    -- JOHN DALTON, 1810
 Job cpu time:       0 days  0 hours 26 minutes 57.0 seconds.
 Elapsed time:       0 days  0 hours 26 minutes 43.8 seconds.
 File lengths (MBytes):  RWF=   2790 Int=      0 D2E=      0 Chk=      4 Scr=      1
 Normal termination of Gaussian 16 at Mon Jul 23 11:46:18 2018.
