 Entering Link 1 = C:\G16W\l1.exe PID=     10748.
  
 Copyright (c) 1988-2017, Gaussian, Inc.  All Rights Reserved.
  
 This is part of the Gaussian(R) 16 program.  It is based on
 the Gaussian(R) 09 system (copyright 2009, Gaussian, Inc.),
 the Gaussian(R) 03 system (copyright 2003, Gaussian, Inc.),
 the Gaussian(R) 98 system (copyright 1998, Gaussian, Inc.),
 the Gaussian(R) 94 system (copyright 1995, Gaussian, Inc.),
 the Gaussian 92(TM) system (copyright 1992, Gaussian, Inc.),
 the Gaussian 90(TM) system (copyright 1990, Gaussian, Inc.),
 the Gaussian 88(TM) system (copyright 1988, Gaussian, Inc.),
 the Gaussian 86(TM) system (copyright 1986, Carnegie Mellon
 University), and the Gaussian 82(TM) system (copyright 1983,
 Carnegie Mellon University). Gaussian is a federally registered
 trademark of Gaussian, Inc.
  
 This software contains proprietary and confidential information,
 including trade secrets, belonging to Gaussian, Inc.
  
 This software is provided under written license and may be
 used, copied, transmitted, or stored only in accord with that
 written license.
  
 The following legend is applicable only to US Government
 contracts under FAR:
  
                    RESTRICTED RIGHTS LEGEND
  
 Use, reproduction and disclosure by the US Government is
 subject to restrictions as set forth in subparagraphs (a)
 and (c) of the Commercial Computer Software - Restricted
 Rights clause in FAR 52.227-19.
  
 Gaussian, Inc.
 340 Quinnipiac St., Bldg. 40, Wallingford CT 06492
  
  
 ---------------------------------------------------------------
 Warning -- This program may not be used in any manner that
 competes with the business of Gaussian, Inc. or will provide
 assistance to any competitor of Gaussian, Inc.  The licensee
 of this program is prohibited from giving any competitor of
 Gaussian, Inc. access to this program.  By using this program,
 the user acknowledges that Gaussian, Inc. is engaged in the
 business of creating and licensing software in the field of
 computational chemistry and represents and warrants to the
 licensee that it is not a competitor of Gaussian, Inc. and that
 it will not use this program in any manner prohibited above.
 ---------------------------------------------------------------
  

 Cite this work as:
 Gaussian 16, Revision B.01,
 M. J. Frisch, G. W. Trucks, H. B. Schlegel, G. E. Scuseria, 
 M. A. Robb, J. R. Cheeseman, G. Scalmani, V. Barone, 
 G. A. Petersson, H. Nakatsuji, X. Li, M. Caricato, A. V. Marenich, 
 J. Bloino, B. G. Janesko, R. Gomperts, B. Mennucci, H. P. Hratchian, 
 J. V. Ortiz, A. F. Izmaylov, J. L. Sonnenberg, D. Williams-Young, 
 F. Ding, F. Lipparini, F. Egidi, J. Goings, B. Peng, A. Petrone, 
 T. Henderson, D. Ranasinghe, V. G. Zakrzewski, J. Gao, N. Rega, 
 G. Zheng, W. Liang, M. Hada, M. Ehara, K. Toyota, R. Fukuda, 
 J. Hasegawa, M. Ishida, T. Nakajima, Y. Honda, O. Kitao, H. Nakai, 
 T. Vreven, K. Throssell, J. A. Montgomery, Jr., J. E. Peralta, 
 F. Ogliaro, M. J. Bearpark, J. J. Heyd, E. N. Brothers, K. N. Kudin, 
 V. N. Staroverov, T. A. Keith, R. Kobayashi, J. Normand, 
 K. Raghavachari, A. P. Rendell, J. C. Burant, S. S. Iyengar, 
 J. Tomasi, M. Cossi, J. M. Millam, M. Klene, C. Adamo, R. Cammi, 
 J. W. Ochterski, R. L. Martin, K. Morokuma, O. Farkas, 
 J. B. Foresman, and D. J. Fox, Gaussian, Inc., Wallingford CT, 2016.
 
 ******************************************
 Gaussian 16:  EM64W-G16RevB.01 16-Dec-2017
                22-Jul-2018 
 ******************************************
 %nproc=2
 Will use up to    2 processors via shared memory.
 %mem=4gb
 %chk=Formate.chk
 ------------------------------------------------------
 # B3LYP Aug-cc-pvDZ opt=(noeigen,calcfc,z-matrix) freq
 ------------------------------------------------------
 1/10=4,11=1,18=40,26=3,38=1/1,3;
 2/12=2,17=6,18=5,29=3,40=1/2;
 3/5=16,7=10,11=2,25=1,30=1,71=2,74=-5,140=1/1,2,3;
 4//1;
 5/5=2,38=5/2;
 8/6=4,10=90,11=11/1;
 11/6=1,8=1,9=11,15=111,16=1/1,2,10;
 10/6=1,13=1/2;
 6/7=2,8=2,9=2,10=2,28=1/1;
 7/10=1,18=20,25=1/1,2,3,16;
 1/10=4,11=1,18=40,26=3/3(2);
 2/29=3/2;
 99//99;
 2/29=3/2;
 3/5=16,7=10,11=2,25=1,30=1,71=1,74=-5/1,2,3;
 4/5=5,16=3,69=1/1;
 5/5=2,38=5/2;
 7//1,2,3,16;
 1/11=1,18=40,26=3/3(-5);
 2/29=3/2;
 6/7=2,8=2,9=2,10=2,19=2,28=1/1;
 99/9=1/99;
 -------
 Formate
 -------
 Symbolic Z-matrix:
 Charge = -1 Multiplicity = 1
 C
 O                    1    R1
 O                    1    R1       2    A1
 H                    1    R2       2    A2       3     180.     0
       Variables:
  R1                    2.                       
  R2                    1.                       
  A1                  120.                       
  A2                  120.                       
 

 GradGradGradGradGradGradGradGradGradGradGradGradGradGradGradGradGradGrad
 Berny optimization.
 Initialization pass.
                       ----------------------------
                       !    Initial Parameters    !
                       ! (Angstroms and Degrees)  !
 ----------------------                            ----------------------
 !      Name          Value   Derivative information (Atomic Units)     !
 ------------------------------------------------------------------------
 !       R1          2.0      calculate D2E/DX2 analytically            !
 !       R2          1.0      calculate D2E/DX2 analytically            !
 !       A1        120.0      calculate D2E/DX2 analytically            !
 !       A2        120.0      calculate D2E/DX2 analytically            !
 ------------------------------------------------------------------------
 Trust Radius=3.00D-01 FncErr=1.00D-07 GrdErr=1.00D-06 EigMax=2.50D+02 EigMin=1.00D-04
 Number of steps in this run=     20 maximum allowed number of steps=    100.
 GradGradGradGradGradGradGradGradGradGradGradGradGradGradGradGradGradGrad

 ---------------------------------------------------------------------------------------------------
                            Z-MATRIX (ANGSTROMS AND DEGREES)
   CD    Cent   Atom    N1       Length/X        N2       Alpha/Y        N3        Beta/Z          J
 ---------------------------------------------------------------------------------------------------
      1      1  C 
      2      2  O        1   2.000000(     1)
      3      3  O        1   2.000000(     2)      2  120.000(     4)
      4      4  H        1   1.000000(     3)      2  120.000(     5)      3  180.000(     6)      0
 ---------------------------------------------------------------------------------------------------
                         Z-Matrix orientation:                         
 ---------------------------------------------------------------------
 Center     Atomic      Atomic             Coordinates (Angstroms)
 Number     Number       Type             X           Y           Z
 ---------------------------------------------------------------------
      1          6           0        0.000000    0.000000    0.000000
      2          8           0        0.000000    0.000000    2.000000
      3          8           0        1.732051    0.000000   -1.000000
      4          1           0       -0.866025    0.000000   -0.500000
 ---------------------------------------------------------------------
                    Distance matrix (angstroms):
                    1          2          3          4
     1  C    0.000000
     2  O    2.000000   0.000000
     3  O    2.000000   3.464102   0.000000
     4  H    1.000000   2.645751   2.645751   0.000000
 Stoichiometry    CHO2(1-)
 Framework group  C2V[C2(CH),SGV(O2)]
 Deg. of freedom     3
 Full point group                 C2V     NOp   4
 Largest Abelian subgroup         C2V     NOp   4
 Largest concise Abelian subgroup C2      NOp   2
                         Standard orientation:                         
 ---------------------------------------------------------------------
 Center     Atomic      Atomic             Coordinates (Angstroms)
 Number     Number       Type             X           Y           Z
 ---------------------------------------------------------------------
      1          6           0        0.000000    0.000000    0.652174
      2          8           0        0.000000    1.732051   -0.347826
      3          8           0        0.000000   -1.732051   -0.347826
      4          1           0        0.000000    0.000000    1.652174
 ---------------------------------------------------------------------
 Rotational constants (GHZ):          43.3215164           5.2660384           4.6952922
 Standard basis: Aug-CC-pVDZ (5D, 7F)
 There are    36 symmetry adapted cartesian basis functions of A1  symmetry.
 There are     9 symmetry adapted cartesian basis functions of A2  symmetry.
 There are    14 symmetry adapted cartesian basis functions of B1  symmetry.
 There are    25 symmetry adapted cartesian basis functions of B2  symmetry.
 There are    32 symmetry adapted basis functions of A1  symmetry.
 There are     9 symmetry adapted basis functions of A2  symmetry.
 There are    14 symmetry adapted basis functions of B1  symmetry.
 There are    23 symmetry adapted basis functions of B2  symmetry.
    78 basis functions,   140 primitive gaussians,    84 cartesian basis functions
    12 alpha electrons       12 beta electrons
       nuclear repulsion energy        41.5523917257 Hartrees.
 NAtoms=    4 NActive=    4 NUniq=    3 SFac= 1.78D+00 NAtFMM=   60 NAOKFM=F Big=F
 Integral buffers will be    131072 words long.
 Raffenetti 2 integral format.
 Two-electron integral symmetry is turned on.
 One-electron integrals computed using PRISM.
 NBasis=    78 RedAO= T EigKep=  7.85D-04  NBF=    32     9    14    23
 NBsUse=    78 1.00D-06 EigRej= -1.00D+00 NBFU=    32     9    14    23
 ExpMin= 2.97D-02 ExpMax= 1.17D+04 ExpMxC= 4.01D+02 IAcc=3 IRadAn=         5 AccDes= 0.00D+00
 Harris functional with IExCor=  402 and IRadAn=       5 diagonalized for initial guess.
 HarFok:  IExCor=  402 AccDes= 0.00D+00 IRadAn=         5 IDoV= 1 UseB2=F ITyADJ=14
 ICtDFT=  3500011 ScaDFX=  1.000000  1.000000  1.000000  1.000000
 FoFCou: FMM=F IPFlag=           0 FMFlag=      100000 FMFlg1=           0
         NFxFlg=           0 DoJE=T BraDBF=F KetDBF=T FulRan=T
         wScrn=  0.000000 ICntrl=       500 IOpCl=  0 I1Cent=   200000004 NGrid=           0
         NMat0=    1 NMatS0=      1 NMatT0=    0 NMatD0=    1 NMtDS0=    0 NMtDT0=    0
 Petite list used in FoFCou.
 Initial guess orbital symmetries:
       Occupied  (B2) (A1) (A1) (A1) (B2) (A1) (A1) (B2) (B1) (A1)
                 (A2) (B2)
       Virtual   (A1) (B1) (B2) (A1) (A1) (B2) (B1) (A1) (B2) (A1)
                 (A2) (A1) (B1) (B2) (A1) (A1) (B2) (B1) (B2) (A1)
                 (A2) (A1) (B1) (A1) (B2) (B1) (A1) (B2) (A2) (A1)
                 (B1) (B2) (B2) (A1) (A2) (B1) (A1) (B2) (A1) (A2)
                 (B2) (B1) (A1) (B2) (B1) (A1) (A2) (A1) (A1) (B2)
                 (B2) (B1) (A1) (A1) (B2) (A1) (A2) (B1) (B2) (A1)
                 (A2) (B1) (B2) (B2) (A1) (A1)
 The electronic state of the initial guess is 1-A1.
 Keep R1 ints in memory in symmetry-blocked form, NReq=6576959.
 Requested convergence on RMS density matrix=1.00D-08 within 128 cycles.
 Requested convergence on MAX density matrix=1.00D-06.
 Requested convergence on             energy=1.00D-06.
 No special actions if energy rises.
 SCF Done:  E(RB3LYP) =  -188.858094169     A.U. after   13 cycles
            NFock= 13  Conv=0.56D-08     -V/T= 2.0104
 DoSCS=F DFT=T ScalE2(SS,OS)=  1.000000  1.000000
 Range of M.O.s used for correlation:     1    78
 NBasis=    78 NAE=    12 NBE=    12 NFC=     0 NFV=     0
 NROrb=     78 NOA=    12 NOB=    12 NVA=    66 NVB=    66

 **** Warning!!: The largest alpha MO coefficient is  0.12093632D+02

 Symmetrizing basis deriv contribution to polar:
 IMax=3 JMax=2 DiffMx= 0.00D+00
 G2DrvN: will do     5 centers at a time, making    1 passes.
 Calling FoFCou, ICntrl=  3107 FMM=F I1Cent=   0 AccDes= 0.00D+00.
 End of G2Drv F.D. properties file   721 does not exist.
 End of G2Drv F.D. properties file   722 does not exist.
 End of G2Drv F.D. properties file   788 does not exist.
          IDoAtm=1111
          Differentiating once with respect to nuclear coordinates.
 Keep R1 ints in memory in symmetry-blocked form, NReq=6573906.
          There are    12 degrees of freedom in the 1st order CPHF.  IDoFFX=4 NUNeed=    12.
      9 vectors produced by pass  0 Test12= 6.60D-15 8.33D-09 XBig12= 2.07D-01 2.78D-01.
 AX will form     9 AO Fock derivatives at one time.
      9 vectors produced by pass  1 Test12= 6.60D-15 8.33D-09 XBig12= 2.05D+00 7.28D-01.
      9 vectors produced by pass  2 Test12= 6.60D-15 8.33D-09 XBig12= 3.74D-02 6.99D-02.
      9 vectors produced by pass  3 Test12= 6.60D-15 8.33D-09 XBig12= 2.01D-03 1.43D-02.
      9 vectors produced by pass  4 Test12= 6.60D-15 8.33D-09 XBig12= 3.58D-05 2.20D-03.
      9 vectors produced by pass  5 Test12= 6.60D-15 8.33D-09 XBig12= 1.19D-06 4.05D-04.
      9 vectors produced by pass  6 Test12= 6.60D-15 8.33D-09 XBig12= 4.85D-09 3.12D-05.
      4 vectors produced by pass  7 Test12= 6.60D-15 8.33D-09 XBig12= 1.00D-11 9.98D-07.
      2 vectors produced by pass  8 Test12= 6.60D-15 8.33D-09 XBig12= 2.06D-14 3.48D-08.
 InvSVY:  IOpt=1 It=  1 EMax= 9.99D-16
 Solved reduced A of dimension    69 with     9 vectors.
 End of Minotr F.D. properties file   721 does not exist.
 End of Minotr F.D. properties file   722 does not exist.
 End of Minotr F.D. properties file   788 does not exist.

 **********************************************************************

            Population analysis using the SCF Density.

 **********************************************************************

 Orbital symmetries:
       Occupied  (B2) (A1) (A1) (A1) (B2) (A1) (A1) (B2) (B1) (A1)
                 (A2) (B2)
       Virtual   (B1) (A1) (A1) (B2) (A1) (B2) (B1) (A1) (B2) (A1)
                 (A1) (A2) (B1) (B2) (A1) (B1) (B2) (A1) (B2) (A1)
                 (A2) (A1) (B1) (A1) (B1) (B2) (A1) (B2) (A2) (A1)
                 (B1) (B2) (B2) (A1) (A2) (A1) (B1) (B2) (A1) (A2)
                 (B2) (B1) (A1) (B2) (B1) (A1) (A1) (A2) (A1) (B2)
                 (B2) (B1) (A1) (A1) (B2) (A1) (A2) (B1) (B2) (A1)
                 (A2) (B1) (B2) (B2) (A1) (A1)
 The electronic state is 1-A1.
 Alpha  occ. eigenvalues --  -18.97167 -18.97165 -10.16897  -0.66429  -0.65495
 Alpha  occ. eigenvalues --   -0.49839  -0.19538  -0.13228  -0.09470  -0.07073
 Alpha  occ. eigenvalues --   -0.06426  -0.06375
 Alpha virt. eigenvalues --    0.04145   0.07641   0.11702   0.13432   0.20093
 Alpha virt. eigenvalues --    0.20212   0.20582   0.24022   0.29130   0.30860
 Alpha virt. eigenvalues --    0.31822   0.31984   0.33495   0.36725   0.39764
 Alpha virt. eigenvalues --    0.44942   0.46240   0.46288   0.48565   0.56420
 Alpha virt. eigenvalues --    0.57972   0.61289   0.64436   0.65976   0.80499
 Alpha virt. eigenvalues --    0.80806   0.91012   0.99911   1.04228   1.07323
 Alpha virt. eigenvalues --    1.08232   1.09841   1.16509   1.17965   1.17980
 Alpha virt. eigenvalues --    1.19942   1.20452   1.20592   1.21326   1.36543
 Alpha virt. eigenvalues --    1.37132   1.40206   1.46754   1.50650   1.51224
 Alpha virt. eigenvalues --    1.64698   1.64917   1.65832   1.79719   1.87124
 Alpha virt. eigenvalues --    2.08616   2.09131   2.15544   2.35283   2.52663
 Alpha virt. eigenvalues --    2.81238   3.44104   3.46011   3.46946   3.46995
 Alpha virt. eigenvalues --    3.52595   3.53559   3.56088   3.59465   3.61140
 Alpha virt. eigenvalues --    3.63079
          Condensed to atoms (all electrons):
               1          2          3          4
     1  C    5.075045   0.232205   0.232205  -0.062645
     2  O    0.232205   8.501953  -0.032568  -0.050764
     3  O    0.232205  -0.032568   8.501953  -0.050764
     4  H   -0.062645  -0.050764  -0.050764   1.385710
 Mulliken charges:
               1
     1  C    0.523190
     2  O   -0.650826
     3  O   -0.650826
     4  H   -0.221538
 Sum of Mulliken charges =  -1.00000
 Mulliken charges with hydrogens summed into heavy atoms:
               1
     1  C    0.301653
     2  O   -0.650826
     3  O   -0.650826
 APT charges:
               1
     1  C    0.044124
     2  O   -0.591576
     3  O   -0.591576
     4  H    0.139028
 Sum of APT charges =  -1.00000
 APT charges with hydrogens summed into heavy atoms:
               1
     1  C    0.183152
     2  O   -0.591576
     3  O   -0.591576
 Electronic spatial extent (au):  <R**2>=            256.3201
 Charge=             -1.0000 electrons
 Dipole moment (field-independent basis, Debye):
    X=              0.0000    Y=              0.0000    Z=              3.1867  Tot=              3.1867
 Quadrupole moment (field-independent basis, Debye-Ang):
   XX=            -21.6349   YY=            -38.2168   ZZ=            -19.6872
   XY=              0.0000   XZ=              0.0000   YZ=              0.0000
 Traceless Quadrupole moment (field-independent basis, Debye-Ang):
   XX=              4.8780   YY=            -11.7038   ZZ=              6.8257
   XY=              0.0000   XZ=              0.0000   YZ=              0.0000
 Octapole moment (field-independent basis, Debye-Ang**2):
  XXX=              0.0000  YYY=              0.0000  ZZZ=              3.9813  XYY=              0.0000
  XXY=              0.0000  XXZ=              0.0872  XZZ=              0.0000  YZZ=              0.0000
  YYZ=              0.1377  XYZ=              0.0000
 Hexadecapole moment (field-independent basis, Debye-Ang**3):
 XXXX=            -29.9156 YYYY=           -320.7416 ZZZZ=            -56.6873 XXXY=              0.0000
 XXXZ=              0.0000 YYYX=              0.0000 YYYZ=              0.0000 ZZZX=              0.0000
 ZZZY=              0.0000 XXYY=            -54.3306 XXZZ=            -15.2054 YYZZ=            -58.3531
 XXYZ=              0.0000 YYXZ=              0.0000 ZZXY=              0.0000
 N-N= 4.155239172570D+01 E-N=-5.334385139759D+02  KE= 1.869162639229D+02
 Symmetry A1   KE= 1.065417921767D+02
 Symmetry A2   KE= 4.479131829170D+00
 Symmetry B1   KE= 3.465654487468D+00
 Symmetry B2   KE= 7.242968542955D+01
  Exact polarizability:   0.000   0.000   0.000   0.000   0.000   0.000
 Approx polarizability:  37.662   0.000 253.855   0.000   0.000  80.889
 Calling FoFJK, ICntrl=    100147 FMM=F ISym2X=1 I1Cent= 0 IOpClX= 0 NMat=1 NMatS=1 NMatT=0.
 ***** Axes restored to original set *****
 -------------------------------------------------------------------
 Center     Atomic                   Forces (Hartrees/Bohr)
 Number     Number              X              Y              Z
 -------------------------------------------------------------------
      1        6           0.198719986    0.000000000    0.114731037
      2        8          -0.007902121    0.000000000   -0.122444388
      3        8          -0.109991011    0.000000000    0.054378756
      4        1          -0.080826854    0.000000000   -0.046665406
 -------------------------------------------------------------------
 Cartesian Forces:  Max     0.198719986 RMS     0.087308661
 -----------------------------------------------------------------------------------------------
                       Internal Coordinate Forces (Hartree/Bohr or radian)
  Cent   Atom   N1       Length/X         N2         Alpha/Y        N3         Beta/Z          J
 -----------------------------------------------------------------------------------------------
      1  C 
      2  O        1  -0.122444(     1)
      3  O        1  -0.122444(     2)      2   0.029866(     4)
      4  H        1   0.093331(     3)      2   0.000000(     5)      3   0.000000(     6)     0
 -----------------------------------------------------------------------------------------------
 Internal  Forces:  Max     0.122444388 RMS     0.081227926

 GradGradGradGradGradGradGradGradGradGradGradGradGradGradGradGradGradGrad
 Berny optimization.
 Search for a local minimum.
 Step number   1 out of a maximum of   20
 All quantities printed in internal units (Hartrees-Bohrs-Radians)
 Second derivative matrix not updated -- analytic derivatives used.
 The second derivative matrix:
                          R1        R2        A1        A2
           R1          -0.15878
           R2          -0.01325   0.61057
           A1          -0.00089   0.00173   0.11818
           A2           0.00000   0.00000   0.04016   0.08036
 ITU=  0
     Eigenvalues ---   -0.15901   0.05488   0.14365   0.61081
 RFO step:  Lambda=-3.39540870D-01 EMin=-1.59007735D-01
 Linear search not attempted -- first point.
 Maximum step size (   0.300) exceeded in Quadratic search.
    -- Step size scaled by   0.298
 Variable       Old X    -DE/DX   Delta X   Delta X   Delta X     New X
                                 (Linear)    (Quad)   (Total)
    R1        3.77945  -0.24489   0.00000  -0.29831  -0.29831   3.48114
    R2        1.88973   0.09333   0.00000   0.02539   0.02539   1.91512
    A1        2.09440   0.02987   0.00000   0.01904   0.01904   2.11344
    A2        2.09440   0.00000   0.00000  -0.00185  -0.00185   2.09255
         Item               Value     Threshold  Converged?
 Maximum Force            0.244889     0.000450     NO 
 RMS     Force            0.131884     0.000300     NO 
 Maximum Displacement     0.298310     0.001800     NO 
 RMS     Displacement     0.150000     0.001200     NO 
 Predicted change in Energy=-8.273300D-02
 GradGradGradGradGradGradGradGradGradGradGradGradGradGradGradGradGradGrad

 ---------------------------------------------------------------------------------------------------
                            Z-MATRIX (ANGSTROMS AND DEGREES)
   CD    Cent   Atom    N1       Length/X        N2       Alpha/Y        N3        Beta/Z          J
 ---------------------------------------------------------------------------------------------------
      1      1  C 
      2      2  O        1   1.842141(     1)
      3      3  O        1   1.842141(     2)      2  121.091(     4)
      4      4  H        1   1.013437(     3)      2  119.894(     5)      3  180.000(     6)      0
 ---------------------------------------------------------------------------------------------------
                         Z-Matrix orientation:                         
 ---------------------------------------------------------------------
 Center     Atomic      Atomic             Coordinates (Angstroms)
 Number     Number       Type             X           Y           Z
 ---------------------------------------------------------------------
      1          6           0        0.000000    0.000000    0.000000
      2          8           0        0.000000    0.000000    1.842141
      3          8           0        1.577512    0.000000   -0.951282
      4          1           0       -0.878596    0.000000   -0.505098
 ---------------------------------------------------------------------
                    Distance matrix (angstroms):
                    1          2          3          4
     1  C    0.000000
     2  O    1.842141   0.000000
     3  O    1.842141   3.208077   0.000000
     4  H    1.013437   2.506285   2.496307   0.000000
 Stoichiometry    CHO2(1-)
 Framework group  CS[SG(CHO2)]
 Deg. of freedom     5
 Full point group                 CS      NOp   2
 Omega: Change in point group or standard orientation.

 Old FWG=C02V [C2(C1H1),SGV(O2)]
 New FWG=CS   [SG(C1H1O2)]
 Largest Abelian subgroup         CS      NOp   2
 Largest concise Abelian subgroup C1      NOp   1
                         Standard orientation:                         
 ---------------------------------------------------------------------
 Center     Atomic      Atomic             Coordinates (Angstroms)
 Number     Number       Type             X           Y           Z
 ---------------------------------------------------------------------
      1          6           0        0.000000    0.586087    0.000000
      2          8           0        1.604561   -0.318825    0.000000
      3          8           0       -1.603516   -0.320677    0.000000
      4          1           0       -0.008365    1.599490    0.000000
 ---------------------------------------------------------------------
 Rotational constants (GHZ):          50.9695835           6.1400985           5.4799511
 Standard basis: Aug-CC-pVDZ (5D, 7F)
 There are    61 symmetry adapted cartesian basis functions of A'  symmetry.
 There are    23 symmetry adapted cartesian basis functions of A"  symmetry.
 There are    55 symmetry adapted basis functions of A'  symmetry.
 There are    23 symmetry adapted basis functions of A"  symmetry.
    78 basis functions,   140 primitive gaussians,    84 cartesian basis functions
    12 alpha electrons       12 beta electrons
       nuclear repulsion energy        44.6520148249 Hartrees.
 NAtoms=    4 NActive=    4 NUniq=    4 SFac= 1.00D+00 NAtFMM=   60 NAOKFM=F Big=F
 Integral buffers will be    131072 words long.
 Raffenetti 2 integral format.
 Two-electron integral symmetry is turned on.
 One-electron integrals computed using PRISM.
 NBasis=    78 RedAO= T EigKep=  8.08D-04  NBF=    55    23
 NBsUse=    78 1.00D-06 EigRej= -1.00D+00 NBFU=    55    23
 Initial guess from the checkpoint file:  "Formate.chk"
 B after Tr=     0.000000    0.000000    0.000000
         Rot=    0.500207    0.499793    0.500207    0.499793 Ang= 119.97 deg.
 Initial guess orbital symmetries:
       Occupied  (A') (A') (A') (A') (A') (A') (A') (A') (A") (A')
                 (A") (A')
       Virtual   (A") (A') (A') (A') (A') (A') (A") (A') (A') (A')
                 (A') (A") (A") (A') (A') (A") (A') (A') (A') (A')
                 (A") (A') (A") (A') (A") (A') (A') (A') (A") (A')
                 (A") (A') (A') (A') (A") (A') (A") (A') (A') (A")
                 (A') (A") (A') (A') (A") (A') (A') (A") (A') (A')
                 (A') (A") (A') (A') (A') (A') (A") (A") (A') (A')
                 (A") (A") (A') (A') (A') (A')
 ExpMin= 2.97D-02 ExpMax= 1.17D+04 ExpMxC= 4.01D+02 IAcc=3 IRadAn=         5 AccDes= 0.00D+00
 Harris functional with IExCor=  402 and IRadAn=       5 diagonalized for initial guess.
 HarFok:  IExCor=  402 AccDes= 0.00D+00 IRadAn=         5 IDoV= 1 UseB2=F ITyADJ=14
 ICtDFT=  3500011 ScaDFX=  1.000000  1.000000  1.000000  1.000000
 FoFCou: FMM=F IPFlag=           0 FMFlag=      100000 FMFlg1=           0
         NFxFlg=           0 DoJE=T BraDBF=F KetDBF=T FulRan=T
         wScrn=  0.000000 ICntrl=       500 IOpCl=  0 I1Cent=   200000004 NGrid=           0
         NMat0=    1 NMatS0=      1 NMatT0=    0 NMatD0=    1 NMtDS0=    0 NMtDT0=    0
 Petite list used in FoFCou.
 Keep R1 ints in memory in symmetry-blocked form, NReq=7206319.
 Requested convergence on RMS density matrix=1.00D-08 within 128 cycles.
 Requested convergence on MAX density matrix=1.00D-06.
 Requested convergence on             energy=1.00D-06.
 No special actions if energy rises.
 SCF Done:  E(RB3LYP) =  -188.940611187     A.U. after   12 cycles
            NFock= 12  Conv=0.24D-08     -V/T= 2.0109
 Calling FoFJK, ICntrl=      2127 FMM=F ISym2X=1 I1Cent= 0 IOpClX= 0 NMat=1 NMatS=1 NMatT=0.
 ***** Axes restored to original set *****
 -------------------------------------------------------------------
 Center     Atomic                   Forces (Hartrees/Bohr)
 Number     Number              X              Y              Z
 -------------------------------------------------------------------
      1        6           0.200738304    0.000000000    0.113338950
      2        8          -0.007967229    0.000000000   -0.144622129
      3        8          -0.127894060    0.000000000    0.068091884
      4        1          -0.064877015    0.000000000   -0.036808705
 -------------------------------------------------------------------
 Cartesian Forces:  Max     0.200738304 RMS     0.091595999
 -----------------------------------------------------------------------------------------------
                       Internal Coordinate Forces (Hartree/Bohr or radian)
  Cent   Atom   N1       Length/X         N2         Alpha/Y        N3         Beta/Z          J
 -----------------------------------------------------------------------------------------------
      1  C 
      2  O        1  -0.144622(     1)
      3  O        1  -0.144684(     2)      2   0.026924(     4)
      4  H        1   0.074590(     3)      2  -0.000811(     5)      3   0.000000(     6)     0
 -----------------------------------------------------------------------------------------------
 Internal  Forces:  Max     0.144684402 RMS     0.089571599

 GradGradGradGradGradGradGradGradGradGradGradGradGradGradGradGradGradGrad
 Berny optimization.
 Search for a local minimum.
 Step number   2 out of a maximum of   20
 All quantities printed in internal units (Hartrees-Bohrs-Radians)
 Update second derivatives using D2CorN and points    1    2
 DE= -8.25D-02 DEPred=-8.27D-02 R= 9.97D-01
 TightC=F SS=  1.41D+00  RLast= 3.00D-01 DXNew= 5.0454D-01 9.0000D-01
 Trust test= 9.97D-01 RLast= 3.00D-01 DXMaxT set to 5.05D-01
 The second derivative matrix:
                          R1        R2        A1        A2
           R1          -0.15018
           R2          -0.01237   0.61036
           A1          -0.00192   0.00172   0.11828
           A2          -0.00030   0.00004   0.04018   0.08035
 ITU=  1  0
     Eigenvalues ---   -0.15039   0.05489   0.14374   0.61057
 RFO step:  Lambda=-3.75759660D-01 EMin=-1.50394746D-01
 Skip linear search -- no minimum in search direction.
 Maximum step size (   0.505) exceeded in Quadratic search.
    -- Step size scaled by   0.502
 Variable       Old X    -DE/DX   Delta X   Delta X   Delta X     New X
                                 (Linear)    (Quad)   (Total)
    R1        3.48114  -0.28931   0.00000  -0.50283  -0.50283   2.97831
    R2        1.91512   0.07459   0.00000   0.03214   0.03214   1.94726
    A1        2.11344   0.02692   0.00000   0.02603   0.02603   2.13947
    A2        2.09255  -0.00081   0.00000  -0.00351  -0.00351   2.08904
         Item               Value     Threshold  Converged?
 Maximum Force            0.289307     0.000450     NO 
 RMS     Force            0.149990     0.000300     NO 
 Maximum Displacement     0.502828     0.001800     NO 
 RMS     Displacement     0.252269     0.001200     NO 
 Predicted change in Energy=-1.669795D-01
 GradGradGradGradGradGradGradGradGradGradGradGradGradGradGradGradGradGrad

 ---------------------------------------------------------------------------------------------------
                            Z-MATRIX (ANGSTROMS AND DEGREES)
   CD    Cent   Atom    N1       Length/X        N2       Alpha/Y        N3        Beta/Z          J
 ---------------------------------------------------------------------------------------------------
      1      1  C 
      2      2  O        1   1.576056(     1)
      3      3  O        1   1.576056(     2)      2  122.582(     4)
      4      4  H        1   1.030443(     3)      2  119.693(     5)      3  180.000(     6)      0
 ---------------------------------------------------------------------------------------------------
                         Z-Matrix orientation:                         
 ---------------------------------------------------------------------
 Center     Atomic      Atomic             Coordinates (Angstroms)
 Number     Number       Type             X           Y           Z
 ---------------------------------------------------------------------
      1          6           0        0.000000    0.000000    0.000000
      2          8           0        0.000000    0.000000    1.576056
      3          8           0        1.328014    0.000000   -0.848723
      4          1           0       -0.895137    0.000000   -0.510435
 ---------------------------------------------------------------------
                    Distance matrix (angstroms):
                    1          2          3          4
     1  C    0.000000
     2  O    1.576056   0.000000
     3  O    1.576056   2.764629   0.000000
     4  H    1.030443   2.270399   2.248741   0.000000
 Stoichiometry    CHO2(1-)
 Framework group  CS[SG(CHO2)]
 Deg. of freedom     5
 Full point group                 CS      NOp   2
 Largest Abelian subgroup         CS      NOp   2
 Largest concise Abelian subgroup C1      NOp   1
                         Standard orientation:                         
 ---------------------------------------------------------------------
 Center     Atomic      Atomic             Coordinates (Angstroms)
 Number     Number       Type             X           Y           Z
 ---------------------------------------------------------------------
      1          6           0        0.000000    0.481864    0.000000
      2          8           0        1.383522   -0.272999    0.000000
      3          8           0       -1.381104   -0.277415    0.000000
      4          1           0       -0.019347    1.512126    0.000000
 ---------------------------------------------------------------------
 Rotational constants (GHZ):          67.7100857           8.2677859           7.3680992
 Standard basis: Aug-CC-pVDZ (5D, 7F)
 There are    61 symmetry adapted cartesian basis functions of A'  symmetry.
 There are    23 symmetry adapted cartesian basis functions of A"  symmetry.
 There are    55 symmetry adapted basis functions of A'  symmetry.
 There are    23 symmetry adapted basis functions of A"  symmetry.
    78 basis functions,   140 primitive gaussians,    84 cartesian basis functions
    12 alpha electrons       12 beta electrons
       nuclear repulsion energy        51.3116790346 Hartrees.
 NAtoms=    4 NActive=    4 NUniq=    4 SFac= 1.00D+00 NAtFMM=   60 NAOKFM=F Big=F
 Integral buffers will be    131072 words long.
 Raffenetti 2 integral format.
 Two-electron integral symmetry is turned on.
 One-electron integrals computed using PRISM.
 NBasis=    78 RedAO= T EigKep=  8.10D-04  NBF=    55    23
 NBsUse=    78 1.00D-06 EigRej= -1.00D+00 NBFU=    55    23
 Initial guess from the checkpoint file:  "Formate.chk"
 B after Tr=     0.000000    0.000000    0.000000
         Rot=    1.000000    0.000000    0.000000   -0.000712 Ang=  -0.08 deg.
 Initial guess orbital symmetries:
       Occupied  (A') (A') (A') (A') (A') (A') (A') (A') (A") (A')
                 (A") (A')
       Virtual   (A") (A') (A') (A') (A") (A') (A') (A') (A') (A')
                 (A') (A") (A") (A') (A') (A") (A') (A') (A') (A')
                 (A") (A') (A") (A') (A") (A') (A') (A') (A") (A')
                 (A") (A') (A") (A') (A') (A') (A") (A') (A') (A")
                 (A') (A") (A') (A') (A") (A') (A") (A') (A') (A')
                 (A") (A') (A') (A') (A') (A') (A") (A") (A') (A')
                 (A") (A") (A') (A') (A') (A')
 ExpMin= 2.97D-02 ExpMax= 1.17D+04 ExpMxC= 4.01D+02 IAcc=3 IRadAn=         5 AccDes= 0.00D+00
 Harris functional with IExCor=  402 and IRadAn=       5 diagonalized for initial guess.
 HarFok:  IExCor=  402 AccDes= 0.00D+00 IRadAn=         5 IDoV= 1 UseB2=F ITyADJ=14
 ICtDFT=  3500011 ScaDFX=  1.000000  1.000000  1.000000  1.000000
 FoFCou: FMM=F IPFlag=           0 FMFlag=      100000 FMFlg1=           0
         NFxFlg=           0 DoJE=T BraDBF=F KetDBF=T FulRan=T
         wScrn=  0.000000 ICntrl=       500 IOpCl=  0 I1Cent=   200000004 NGrid=           0
         NMat0=    1 NMatS0=      1 NMatT0=    0 NMatD0=    1 NMtDS0=    0 NMtDT0=    0
 Petite list used in FoFCou.
 Keep R1 ints in memory in symmetry-blocked form, NReq=7206319.
 Requested convergence on RMS density matrix=1.00D-08 within 128 cycles.
 Requested convergence on MAX density matrix=1.00D-06.
 Requested convergence on             energy=1.00D-06.
 No special actions if energy rises.
 SCF Done:  E(RB3LYP) =  -189.100738050     A.U. after   11 cycles
            NFock= 11  Conv=0.38D-08     -V/T= 2.0107
 Calling FoFJK, ICntrl=      2127 FMM=F ISym2X=1 I1Cent= 0 IOpClX= 0 NMat=1 NMatS=1 NMatT=0.
 ***** Axes restored to original set *****
 -------------------------------------------------------------------
 Center     Atomic                   Forces (Hartrees/Bohr)
 Number     Number              X              Y              Z
 -------------------------------------------------------------------
      1        6           0.195203343    0.000000000    0.106435635
      2        8          -0.008431884    0.000000000   -0.160892552
      3        8          -0.139010182    0.000000000    0.079984336
      4        1          -0.047761277    0.000000000   -0.025527420
 -------------------------------------------------------------------
 Cartesian Forces:  Max     0.195203343 RMS     0.093114854
 -----------------------------------------------------------------------------------------------
                       Internal Coordinate Forces (Hartree/Bohr or radian)
  Cent   Atom   N1       Length/X         N2         Alpha/Y        N3         Beta/Z          J
 -----------------------------------------------------------------------------------------------
      1  C 
      2  O        1  -0.160893(     1)
      3  O        1  -0.160205(     2)      2   0.022225(     4)
      4  H        1   0.054135(     3)      2  -0.002888(     5)      3   0.000000(     6)     0
 -----------------------------------------------------------------------------------------------
 Internal  Forces:  Max     0.160892552 RMS     0.095729591

 GradGradGradGradGradGradGradGradGradGradGradGradGradGradGradGradGradGrad
 Berny optimization.
 Search for a local minimum.
 Step number   3 out of a maximum of   20
 All quantities printed in internal units (Hartrees-Bohrs-Radians)
 Update second derivatives using D2CorN and points    2    3
 DE= -1.60D-01 DEPred=-1.67D-01 R= 9.59D-01
 TightC=F SS=  1.41D+00  RLast= 5.05D-01 DXNew= 8.4853D-01 1.5136D+00
 Trust test= 9.59D-01 RLast= 5.05D-01 DXMaxT set to 8.49D-01
 The second derivative matrix:
                          R1        R2        A1        A2
           R1          -0.06469
           R2          -0.00975   0.60968
           A1          -0.00486   0.00149   0.11835
           A2          -0.00115   0.00015   0.04023   0.08034
 ITU=  1  1  0
     Eigenvalues ---   -0.06496   0.05487   0.14394   0.60982
 RFO step:  Lambda=-3.56250680D-01 EMin=-6.49638119D-02
 Skip linear search -- no minimum in search direction.
 Maximum step size (   0.849) exceeded in Quadratic search.
    -- Step size scaled by   0.845
 Variable       Old X    -DE/DX   Delta X   Delta X   Delta X     New X
                                 (Linear)    (Quad)   (Total)
    R1        2.97831  -0.32110   0.00000  -0.84691  -0.84691   2.13140
    R2        1.94726   0.05413   0.00000   0.03912   0.03912   1.98638
    A1        2.13947   0.02222   0.00000   0.03301   0.03301   2.17248
    A2        2.08904  -0.00289   0.00000  -0.01084  -0.01084   2.07820
         Item               Value     Threshold  Converged?
 Maximum Force            0.321098     0.000450     NO 
 RMS     Force            0.163200     0.000300     NO 
 Maximum Displacement     0.846913     0.001800     NO 
 RMS     Displacement     0.424264     0.001200     NO 
 Predicted change in Energy=-2.970547D-01
 GradGradGradGradGradGradGradGradGradGradGradGradGradGradGradGradGradGrad

 ---------------------------------------------------------------------------------------------------
                            Z-MATRIX (ANGSTROMS AND DEGREES)
   CD    Cent   Atom    N1       Length/X        N2       Alpha/Y        N3        Beta/Z          J
 ---------------------------------------------------------------------------------------------------
      1      1  C 
      2      2  O        1   1.127889(     1)
      3      3  O        1   1.127889(     2)      2  124.474(     4)
      4      4  H        1   1.051147(     3)      2  119.072(     5)      3  180.000(     6)      0
 ---------------------------------------------------------------------------------------------------
                         Z-Matrix orientation:                         
 ---------------------------------------------------------------------
 Center     Atomic      Atomic             Coordinates (Angstroms)
 Number     Number       Type             X           Y           Z
 ---------------------------------------------------------------------
      1          6           0        0.000000    0.000000    0.000000
      2          8           0        0.000000    0.000000    1.127889
      3          8           0        0.929813    0.000000   -0.638420
      4          1           0       -0.918712    0.000000   -0.510763
 ---------------------------------------------------------------------
                    Distance matrix (angstroms):
                    1          2          3          4
     1  C    0.000000
     2  O    1.127889   0.000000
     3  O    1.127889   1.996096   0.000000
     4  H    1.051147   1.878620   1.852928   0.000000
 Stoichiometry    CHO2(1-)
 Framework group  CS[SG(CHO2)]
 Deg. of freedom     5
 Full point group                 CS      NOp   2
 Largest Abelian subgroup         CS      NOp   2
 Largest concise Abelian subgroup C1      NOp   1
                         Standard orientation:                         
 ---------------------------------------------------------------------
 Center     Atomic      Atomic             Coordinates (Angstroms)
 Number     Number       Type             X           Y           Z
 ---------------------------------------------------------------------
      1          6           0        0.000000    0.319799    0.000000
      2          8           0        0.999758   -0.202328    0.000000
      3          8           0       -0.996327   -0.208845    0.000000
      4          1           0       -0.027446    1.370588    0.000000
 ---------------------------------------------------------------------
 Rotational constants (GHZ):         114.0346868          15.8596662          13.9232540
 Standard basis: Aug-CC-pVDZ (5D, 7F)
 There are    61 symmetry adapted cartesian basis functions of A'  symmetry.
 There are    23 symmetry adapted cartesian basis functions of A"  symmetry.
 There are    55 symmetry adapted basis functions of A'  symmetry.
 There are    23 symmetry adapted basis functions of A"  symmetry.
    78 basis functions,   140 primitive gaussians,    84 cartesian basis functions
    12 alpha electrons       12 beta electrons
       nuclear repulsion energy        69.5663521764 Hartrees.
 NAtoms=    4 NActive=    4 NUniq=    4 SFac= 1.00D+00 NAtFMM=   60 NAOKFM=F Big=F
 Integral buffers will be    131072 words long.
 Raffenetti 2 integral format.
 Two-electron integral symmetry is turned on.
 One-electron integrals computed using PRISM.
 NBasis=    78 RedAO= T EigKep=  6.37D-04  NBF=    55    23
 NBsUse=    78 1.00D-06 EigRej= -1.00D+00 NBFU=    55    23
 Initial guess from the checkpoint file:  "Formate.chk"
 B after Tr=     0.000000    0.000000    0.000000
         Rot=    0.999999    0.000000    0.000000   -0.001066 Ang=  -0.12 deg.
 Initial guess orbital symmetries:
       Occupied  (A') (A') (A') (A') (A') (A') (A') (A') (A") (A')
                 (A") (A')
       Virtual   (A') (A") (A') (A') (A") (A') (A') (A') (A') (A")
                 (A') (A') (A") (A') (A') (A") (A') (A') (A') (A')
                 (A") (A') (A") (A') (A") (A') (A') (A') (A') (A")
                 (A") (A') (A') (A") (A") (A') (A') (A') (A') (A")
                 (A") (A') (A") (A') (A') (A') (A') (A") (A') (A')
                 (A") (A') (A') (A') (A') (A') (A") (A") (A') (A')
                 (A") (A') (A") (A') (A') (A')
 ExpMin= 2.97D-02 ExpMax= 1.17D+04 ExpMxC= 4.01D+02 IAcc=3 IRadAn=         5 AccDes= 0.00D+00
 Harris functional with IExCor=  402 and IRadAn=       5 diagonalized for initial guess.
 HarFok:  IExCor=  402 AccDes= 0.00D+00 IRadAn=         5 IDoV= 1 UseB2=F ITyADJ=14
 ICtDFT=  3500011 ScaDFX=  1.000000  1.000000  1.000000  1.000000
 FoFCou: FMM=F IPFlag=           0 FMFlag=      100000 FMFlg1=           0
         NFxFlg=           0 DoJE=T BraDBF=F KetDBF=T FulRan=T
         wScrn=  0.000000 ICntrl=       500 IOpCl=  0 I1Cent=   200000004 NGrid=           0
         NMat0=    1 NMatS0=      1 NMatT0=    0 NMatD0=    1 NMtDS0=    0 NMtDT0=    0
 Petite list used in FoFCou.
 Keep R1 ints in memory in symmetry-blocked form, NReq=7206319.
 Requested convergence on RMS density matrix=1.00D-08 within 128 cycles.
 Requested convergence on MAX density matrix=1.00D-06.
 Requested convergence on             energy=1.00D-06.
 No special actions if energy rises.
 SCF Done:  E(RB3LYP) =  -189.169282361     A.U. after   12 cycles
            NFock= 12  Conv=0.49D-08     -V/T= 1.9986
 Calling FoFJK, ICntrl=      2127 FMM=F ISym2X=1 I1Cent= 0 IOpClX= 0 NMat=1 NMatS=1 NMatT=0.
 ***** Axes restored to original set *****
 -------------------------------------------------------------------
 Center     Atomic                   Forces (Hartrees/Bohr)
 Number     Number              X              Y              Z
 -------------------------------------------------------------------
      1        6          -0.121519350    0.000000000   -0.065013407
      2        8          -0.037266442    0.000000000    0.291716374
      3        8           0.224438933    0.000000000   -0.194782466
      4        1          -0.065653141    0.000000000   -0.031920501
 -------------------------------------------------------------------
 Cartesian Forces:  Max     0.291716374 RMS     0.128816156
 -----------------------------------------------------------------------------------------------
                       Internal Coordinate Forces (Hartree/Bohr or radian)
  Cent   Atom   N1       Length/X         N2         Alpha/Y        N3         Beta/Z          J
 -----------------------------------------------------------------------------------------------
      1  C 
      2  O        1   0.291716(     1)
      3  O        1   0.295277(     2)      2   0.071479(     4)
      4  H        1   0.072892(     3)      2  -0.007951(     5)      3   0.000000(     6)     0
 -----------------------------------------------------------------------------------------------
 Internal  Forces:  Max     0.295276782 RMS     0.174533893

 GradGradGradGradGradGradGradGradGradGradGradGradGradGradGradGradGradGrad
 Berny optimization.
 Search for a local minimum.
 Step number   4 out of a maximum of   20
 All quantities printed in internal units (Hartrees-Bohrs-Radians)
 Update second derivatives using D2CorN and points    4
 DE= -6.85D-02 DEPred=-2.97D-01 R= 2.31D-01
 Trust test= 2.31D-01 RLast= 8.49D-01 DXMaxT set to 8.49D-01
 The second derivative matrix:
                          R1        R2        A1        A2
           R1          -0.06469
           R2          -0.00975   0.60968
           A1          -0.00486   0.00149   0.11835
           A2          -0.00115   0.00015   0.04023   0.08034
 ITU=  0  1  1  0
     Eigenvalues ---   -0.06496   0.05487   0.14394   0.60982
 RFO step:  Lambda=-6.79611967D-02 EMin=-6.49638119D-02
 I=     1 Eig=   -6.50D-02 Dot1=  5.66D-03
 I=     1 Stepn=  6.00D-01 RXN=   6.00D-01 EDone=F
 Mixed    1 eigenvectors in step.  Raw Step.Grad=  5.66D-03.
 RFO eigenvector is Hessian eigenvector with negative curvature.
 Taking step of  6.00D-01 in eigenvector direction(s).  Step.Grad= -6.11D-03.
 Quartic linear search produced a step of -0.31187.
 Variable       Old X    -DE/DX   Delta X   Delta X   Delta X     New X
                                 (Linear)    (Quad)   (Total)
    R1        2.13140   0.58699   0.26413   0.59973   0.86386   2.99526
    R2        1.98638   0.07289  -0.01220   0.00863  -0.00357   1.98281
    A1        2.17248   0.07148  -0.01030   0.01577   0.00547   2.17795
    A2        2.07820  -0.00795   0.00338   0.00036   0.00374   2.08194
         Item               Value     Threshold  Converged?
 Maximum Force            0.586993     0.000450     NO 
 RMS     Force            0.297929     0.000300     NO 
 Maximum Displacement     0.863857     0.001800     NO 
 RMS     Displacement     0.431945     0.001200     NO 
 Predicted change in Energy=-5.313077D-01
 GradGradGradGradGradGradGradGradGradGradGradGradGradGradGradGradGradGrad

 ---------------------------------------------------------------------------------------------------
                            Z-MATRIX (ANGSTROMS AND DEGREES)
   CD    Cent   Atom    N1       Length/X        N2       Alpha/Y        N3        Beta/Z          J
 ---------------------------------------------------------------------------------------------------
      1      1  C 
      2      2  O        1   1.585022(     1)
      3      3  O        1   1.585022(     2)      2  124.787(     4)
      4      4  H        1   1.049257(     3)      2  119.286(     5)      3  180.000(     6)      0
 ---------------------------------------------------------------------------------------------------
                         Z-Matrix orientation:                         
 ---------------------------------------------------------------------
 Center     Atomic      Atomic             Coordinates (Angstroms)
 Number     Number       Type             X           Y           Z
 ---------------------------------------------------------------------
      1          6           0        0.000000    0.000000    0.000000
      2          8           0        0.000000    0.000000    1.585022
      3          8           0        1.301740    0.000000   -0.904305
      4          1           0       -0.915146    0.000000   -0.513272
 ---------------------------------------------------------------------
                    Distance matrix (angstroms):
                    1          2          3          4
     1  C    0.000000
     2  O    1.585022   0.000000
     3  O    1.585022   2.809142   0.000000
     4  H    1.049257   2.289176   2.251109   0.000000
 Stoichiometry    CHO2(1-)
 Framework group  CS[SG(CHO2)]
 Deg. of freedom     5
 Full point group                 CS      NOp   2
 Largest Abelian subgroup         CS      NOp   2
 Largest concise Abelian subgroup C1      NOp   1
                         Standard orientation:                         
 ---------------------------------------------------------------------
 Center     Atomic      Atomic             Coordinates (Angstroms)
 Number     Number       Type             X           Y           Z
 ---------------------------------------------------------------------
      1          6           0        0.000000    0.465351    0.000000
      2          8           0        1.406676   -0.265099    0.000000
      3          8           0       -1.402454   -0.273173    0.000000
      4          1           0       -0.033778    1.514064    0.000000
 ---------------------------------------------------------------------
 Rotational constants (GHZ):          70.4220982           8.0077638           7.1901635
 Standard basis: Aug-CC-pVDZ (5D, 7F)
 There are    61 symmetry adapted cartesian basis functions of A'  symmetry.
 There are    23 symmetry adapted cartesian basis functions of A"  symmetry.
 There are    55 symmetry adapted basis functions of A'  symmetry.
 There are    23 symmetry adapted basis functions of A"  symmetry.
    78 basis functions,   140 primitive gaussians,    84 cartesian basis functions
    12 alpha electrons       12 beta electrons
       nuclear repulsion energy        50.8627068190 Hartrees.
 NAtoms=    4 NActive=    4 NUniq=    4 SFac= 1.00D+00 NAtFMM=   60 NAOKFM=F Big=F
 Integral buffers will be    131072 words long.
 Raffenetti 2 integral format.
 Two-electron integral symmetry is turned on.
 One-electron integrals computed using PRISM.
 NBasis=    78 RedAO= T EigKep=  8.45D-04  NBF=    55    23
 NBsUse=    78 1.00D-06 EigRej= -1.00D+00 NBFU=    55    23
 Initial guess from the checkpoint file:  "Formate.chk"
 B after Tr=     0.000000    0.000000    0.000000
         Rot=    1.000000    0.000000    0.000000    0.000085 Ang=   0.01 deg.
 Initial guess orbital symmetries:
       Occupied  (A') (A') (A') (A') (A') (A') (A') (A") (A') (A")
                 (A') (A')
       Virtual   (A') (A') (A') (A") (A') (A") (A') (A') (A") (A')
                 (A") (A') (A') (A') (A") (A') (A') (A') (A') (A")
                 (A") (A') (A') (A") (A') (A') (A') (A') (A') (A")
                 (A') (A') (A") (A") (A") (A') (A') (A') (A') (A")
                 (A') (A") (A") (A') (A') (A') (A') (A") (A') (A")
                 (A') (A') (A') (A') (A') (A') (A") (A") (A') (A')
                 (A") (A") (A') (A') (A') (A')
 ExpMin= 2.97D-02 ExpMax= 1.17D+04 ExpMxC= 4.01D+02 IAcc=3 IRadAn=         5 AccDes= 0.00D+00
 Harris functional with IExCor=  402 and IRadAn=       5 diagonalized for initial guess.
 HarFok:  IExCor=  402 AccDes= 0.00D+00 IRadAn=         5 IDoV= 1 UseB2=F ITyADJ=14
 ICtDFT=  3500011 ScaDFX=  1.000000  1.000000  1.000000  1.000000
 FoFCou: FMM=F IPFlag=           0 FMFlag=      100000 FMFlg1=           0
         NFxFlg=           0 DoJE=T BraDBF=F KetDBF=T FulRan=T
         wScrn=  0.000000 ICntrl=       500 IOpCl=  0 I1Cent=   200000004 NGrid=           0
         NMat0=    1 NMatS0=      1 NMatT0=    0 NMatD0=    1 NMtDS0=    0 NMtDT0=    0
 Petite list used in FoFCou.
 Keep R1 ints in memory in symmetry-blocked form, NReq=7206319.
 Requested convergence on RMS density matrix=1.00D-08 within 128 cycles.
 Requested convergence on MAX density matrix=1.00D-06.
 Requested convergence on             energy=1.00D-06.
 No special actions if energy rises.
 SCF Done:  E(RB3LYP) =  -189.097601324     A.U. after   12 cycles
            NFock= 12  Conv=0.67D-08     -V/T= 2.0109
 Calling FoFJK, ICntrl=      2127 FMM=F ISym2X=1 I1Cent= 0 IOpClX= 0 NMat=1 NMatS=1 NMatT=0.
 ***** Axes restored to original set *****
 -------------------------------------------------------------------
 Center     Atomic                   Forces (Hartrees/Bohr)
 Number     Number              X              Y              Z
 -------------------------------------------------------------------
      1        6           0.173708020    0.000000000    0.089563408
      2        8          -0.005876414    0.000000000   -0.161685105
      3        8          -0.134202752    0.000000000    0.088100370
      4        1          -0.033628854    0.000000000   -0.015978673
 -------------------------------------------------------------------
 Cartesian Forces:  Max     0.173708020 RMS     0.087336016
 -----------------------------------------------------------------------------------------------
                       Internal Coordinate Forces (Hartree/Bohr or radian)
  Cent   Atom   N1       Length/X         N2         Alpha/Y        N3         Beta/Z          J
 -----------------------------------------------------------------------------------------------
      1  C 
      2  O        1  -0.161685(     1)
      3  O        1  -0.160481(     2)      2   0.012617(     4)
      4  H        1   0.037147(     3)      2  -0.004985(     5)      3   0.000000(     6)     0
 -----------------------------------------------------------------------------------------------
 Internal  Forces:  Max     0.161685105 RMS     0.094393074

 GradGradGradGradGradGradGradGradGradGradGradGradGradGradGradGradGradGrad
 Berny optimization.
 Search for a local minimum.
 Step number   5 out of a maximum of   20
 All quantities printed in internal units (Hartrees-Bohrs-Radians)
 Update second derivatives using D2CorN and points    4
 The second derivative matrix:
                          R1        R2        A1        A2
           R1          -0.06469
           R2          -0.00975   0.60968
           A1          -0.00486   0.00149   0.11835
           A2          -0.00115   0.00015   0.04023   0.08034
 ITU=  0  0  1  1  0
     Eigenvalues ---   -0.06496   0.05487   0.14394   0.60982
 RFO step:  Lambda=-6.50816761D-02 EMin=-6.49638119D-02
 I=     1 Eig=   -6.50D-02 Dot1=  1.34D-03
 I=     1 Stepn=  6.00D-01 RXN=   6.00D-01 EDone=F
 Mixed    1 eigenvectors in step.  Raw Step.Grad=  1.34D-03.
 RFO eigenvector is Hessian eigenvector with negative curvature.
 Taking step of  6.00D-01 in eigenvector direction(s).  Step.Grad= -1.67D-03.
 Quartic linear search produced a step of -0.69225.
 Variable       Old X    -DE/DX   Delta X   Delta X   Delta X     New X
                                 (Linear)    (Quad)   (Total)
    R1        2.99526  -0.32217  -0.59800   0.59973   0.00173   2.99699
    R2        1.98281   0.03715   0.00247   0.00863   0.01110   1.99391
    A1        2.17795   0.01262  -0.00379   0.01577   0.01198   2.18993
    A2        2.08194  -0.00498  -0.00259   0.00036  -0.00223   2.07971
         Item               Value     Threshold  Converged?
 Maximum Force            0.322167     0.000450     NO 
 RMS     Force            0.162292     0.000300     NO 
 Maximum Displacement     0.011980     0.001800     NO 
 RMS     Displacement     0.008287     0.001200     NO 
 Predicted change in Energy=-7.170807D-02
 GradGradGradGradGradGradGradGradGradGradGradGradGradGradGradGradGradGrad

 ---------------------------------------------------------------------------------------------------
                            Z-MATRIX (ANGSTROMS AND DEGREES)
   CD    Cent   Atom    N1       Length/X        N2       Alpha/Y        N3        Beta/Z          J
 ---------------------------------------------------------------------------------------------------
      1      1  C 
      2      2  O        1   1.585936(     1)
      3      3  O        1   1.585936(     2)      2  125.474(     4)
      4      4  H        1   1.055132(     3)      2  119.159(     5)      3  180.000(     6)      0
 ---------------------------------------------------------------------------------------------------
                         Z-Matrix orientation:                         
 ---------------------------------------------------------------------
 Center     Atomic      Atomic             Coordinates (Angstroms)
 Number     Number       Type             X           Y           Z
 ---------------------------------------------------------------------
      1          6           0        0.000000    0.000000    0.000000
      2          8           0        0.000000    0.000000    1.585936
      3          8           0        1.291558    0.000000   -0.920365
      4          1           0       -0.921419    0.000000   -0.514093
 ---------------------------------------------------------------------
                    Distance matrix (angstroms):
                    1          2          3          4
     1  C    0.000000
     2  O    1.585936   0.000000
     3  O    1.585936   2.819516   0.000000
     4  H    1.055132   2.293280   2.249961   0.000000
 Stoichiometry    CHO2(1-)
 Framework group  CS[SG(CHO2)]
 Deg. of freedom     5
 Full point group                 CS      NOp   2
 Largest Abelian subgroup         CS      NOp   2
 Largest concise Abelian subgroup C1      NOp   1
                         Standard orientation:                         
 ---------------------------------------------------------------------
 Center     Atomic      Atomic             Coordinates (Angstroms)
 Number     Number       Type             X           Y           Z
 ---------------------------------------------------------------------
      1          6           0        0.000000    0.459531    0.000000
      2          8           0        1.412149   -0.262292    0.000000
      3          8           0       -1.407351   -0.271602    0.000000
      4          1           0       -0.038384    1.513965    0.000000
 ---------------------------------------------------------------------
 Rotational constants (GHZ):          71.4407810           7.9489109           7.1530244
 Standard basis: Aug-CC-pVDZ (5D, 7F)
 There are    61 symmetry adapted cartesian basis functions of A'  symmetry.
 There are    23 symmetry adapted cartesian basis functions of A"  symmetry.
 There are    55 symmetry adapted basis functions of A'  symmetry.
 There are    23 symmetry adapted basis functions of A"  symmetry.
    78 basis functions,   140 primitive gaussians,    84 cartesian basis functions
    12 alpha electrons       12 beta electrons
       nuclear repulsion energy        50.7806685081 Hartrees.
 NAtoms=    4 NActive=    4 NUniq=    4 SFac= 1.00D+00 NAtFMM=   60 NAOKFM=F Big=F
 Integral buffers will be    131072 words long.
 Raffenetti 2 integral format.
 Two-electron integral symmetry is turned on.
 One-electron integrals computed using PRISM.
 NBasis=    78 RedAO= T EigKep=  8.56D-04  NBF=    55    23
 NBsUse=    78 1.00D-06 EigRej= -1.00D+00 NBFU=    55    23
 Lowest energy guess from the checkpoint file:  "Formate.chk"
 B after Tr=     0.000000    0.000000    0.000000
         Rot=    1.000000    0.000000    0.000000   -0.000236 Ang=  -0.03 deg.
 B after Tr=     0.000000    0.000000    0.000000
         Rot=    1.000000    0.000000    0.000000   -0.000300 Ang=  -0.03 deg.
 Initial guess orbital symmetries:
       Occupied  (A') (A') (A') (A') (A") (A') (A') (A') (A") (A')
                 (A') (A')
       Virtual   (A') (A') (A') (A') (A") (A') (A') (A') (A") (A')
                 (A') (A') (A") (A") (A") (A") (A") (A") (A") (A")
                 (A") (A") (A") (A") (A") (A") (A") (A") (A") (A")
                 (A") (A") (A") (A") (A") (A") (A") (A") (A") (A")
                 (A") (A") (A") (A") (A") (A") (A") (A") (A") (A")
                 (A") (A") (A") (A") (A") (A") (A") (A") (A") (A")
                 (A") (A") (A") (A") (A") (A")
 Keep R1 ints in memory in symmetry-blocked form, NReq=7206319.
 Requested convergence on RMS density matrix=1.00D-08 within 128 cycles.
 Requested convergence on MAX density matrix=1.00D-06.
 Requested convergence on             energy=1.00D-06.
 No special actions if energy rises.
 An orbital has undefined symmetry, so N**3 symmetry is turned off.
 SCF Done:  E(RB3LYP) =  -189.097575037     A.U. after   12 cycles
            NFock= 12  Conv=0.20D-08     -V/T= 2.0110
 Calling FoFJK, ICntrl=      2127 FMM=F ISym2X=1 I1Cent= 0 IOpClX= 0 NMat=1 NMatS=1 NMatT=0.
 ***** Axes restored to original set *****
 -------------------------------------------------------------------
 Center     Atomic                   Forces (Hartrees/Bohr)
 Number     Number              X              Y              Z
 -------------------------------------------------------------------
      1        6           0.167169707    0.000000000    0.084561397
      2        8          -0.005126954    0.000000000   -0.161799267
      3        8          -0.132520338    0.000000000    0.090458059
      4        1          -0.029522414    0.000000000   -0.013220189
 -------------------------------------------------------------------
 Cartesian Forces:  Max     0.167169707 RMS     0.085679770
 -----------------------------------------------------------------------------------------------
                       Internal Coordinate Forces (Hartree/Bohr or radian)
  Cent   Atom   N1       Length/X         N2         Alpha/Y        N3         Beta/Z          J
 -----------------------------------------------------------------------------------------------
      1  C 
      2  O        1  -0.161799(     1)
      3  O        1  -0.160418(     2)      2   0.009704(     4)
      4  H        1   0.032222(     3)      2  -0.005661(     5)      3   0.000000(     6)     0
 -----------------------------------------------------------------------------------------------
 Internal  Forces:  Max     0.161799267 RMS     0.094054353

 GradGradGradGradGradGradGradGradGradGradGradGradGradGradGradGradGradGrad
 Berny optimization.
 Search for a local minimum.
 Step number   6 out of a maximum of   20
 All quantities printed in internal units (Hartrees-Bohrs-Radians)
 Update second derivatives using D2CorN and points    4
 The second derivative matrix:
                          R1        R2        A1        A2
           R1          -0.06469
           R2          -0.00975   0.60968
           A1          -0.00486   0.00149   0.11835
           A2          -0.00115   0.00015   0.04023   0.08034
 ITU=  0  0  0  1  1
 Energy rises -- skip Quadratic search.
 Quartic linear search produced a step of -0.69225.
 Variable       Old X    -DE/DX   Delta X   Delta X   Delta X     New X
                                 (Linear)    (Quad)   (Total)
    R1        2.99526  -0.32217  -0.59800   0.00000  -0.59800   2.39725
    R2        1.98281   0.03715   0.00247   0.00000   0.00247   1.98528
    A1        2.17795   0.01262  -0.00379   0.00000  -0.00379   2.17416
    A2        2.08194  -0.00498  -0.00259   0.00000  -0.00259   2.07935
         Item               Value     Threshold  Converged?
 Maximum Force            0.322217     0.000450     NO 
 RMS     Force            0.162009     0.000300     NO 
 Maximum Displacement     0.598003     0.001800     NO 
 RMS     Displacement     0.299013     0.001200     NO 
 Predicted change in Energy=-1.325952D-01
 GradGradGradGradGradGradGradGradGradGradGradGradGradGradGradGradGradGrad

 ---------------------------------------------------------------------------------------------------
                            Z-MATRIX (ANGSTROMS AND DEGREES)
   CD    Cent   Atom    N1       Length/X        N2       Alpha/Y        N3        Beta/Z          J
 ---------------------------------------------------------------------------------------------------
      1      1  C 
      2      2  O        1   1.268573(     1)
      3      3  O        1   1.268573(     2)      2  124.570(     4)
      4      4  H        1   1.050566(     3)      2  119.138(     5)      3  180.000(     6)      0
 ---------------------------------------------------------------------------------------------------
                         Z-Matrix orientation:                         
 ---------------------------------------------------------------------
 Center     Atomic      Atomic             Coordinates (Angstroms)
 Number     Number       Type             X           Y           Z
 ---------------------------------------------------------------------
      1          6           0        0.000000    0.000000    0.000000
      2          8           0        0.000000    0.000000    1.268573
      3          8           0        1.044580    0.000000   -0.719811
      4          1           0       -0.917615    0.000000   -0.511537
 ---------------------------------------------------------------------
                    Distance matrix (angstroms):
                    1          2          3          4
     1  C    0.000000
     2  O    1.268573   0.000000
     3  O    1.268573   2.246067   0.000000
     4  H    1.050566   2.002700   1.973218   0.000000
 Stoichiometry    CHO2(1-)
 Framework group  CS[SG(CHO2)]
 Deg. of freedom     5
 Full point group                 CS      NOp   2
 Largest Abelian subgroup         CS      NOp   2
 Largest concise Abelian subgroup C1      NOp   1
                         Standard orientation:                         
 ---------------------------------------------------------------------
 Center     Atomic      Atomic             Coordinates (Angstroms)
 Number     Number       Type             X           Y           Z
 ---------------------------------------------------------------------
      1          6           0        0.000000    0.364757    0.000000
      2          8           0        1.124863   -0.221723    0.000000
      3          8           0       -1.121193   -0.228709    0.000000
      4          1           0       -0.029361    1.414912    0.000000
 ---------------------------------------------------------------------
 Rotational constants (GHZ):          97.3116854          12.5259904          11.0975148
 Standard basis: Aug-CC-pVDZ (5D, 7F)
 There are    61 symmetry adapted cartesian basis functions of A'  symmetry.
 There are    23 symmetry adapted cartesian basis functions of A"  symmetry.
 There are    55 symmetry adapted basis functions of A'  symmetry.
 There are    23 symmetry adapted basis functions of A"  symmetry.
    78 basis functions,   140 primitive gaussians,    84 cartesian basis functions
    12 alpha electrons       12 beta electrons
       nuclear repulsion energy        62.4058476684 Hartrees.
 NAtoms=    4 NActive=    4 NUniq=    4 SFac= 1.00D+00 NAtFMM=   60 NAOKFM=F Big=F
 Integral buffers will be    131072 words long.
 Raffenetti 2 integral format.
 Two-electron integral symmetry is turned on.
 One-electron integrals computed using PRISM.
 NBasis=    78 RedAO= T EigKep=  7.21D-04  NBF=    55    23
 NBsUse=    78 1.00D-06 EigRej= -1.00D+00 NBFU=    55    23
 Lowest energy guess from the checkpoint file:  "Formate.chk"
 B after Tr=     0.000000    0.000000    0.000000
         Rot=    1.000000    0.000000    0.000000    0.000035 Ang=   0.00 deg.
 B after Tr=     0.000000    0.000000    0.000000
         Rot=    1.000000    0.000000    0.000000    0.000264 Ang=   0.03 deg.
 Initial guess orbital symmetries:
       Occupied  (A') (A') (A') (A") (A') (A') (A') (A') (A") (A')
                 (A') (A')
       Virtual   (A') (A') (A') (A") (A') (A') (A') (A') (A") (A')
                 (A') (A') (A") (A") (A") (A") (A") (A") (A") (A")
                 (A") (A") (A") (A") (A") (A") (A") (A") (A") (A")
                 (A") (A") (A") (A") (A") (A") (A") (A") (A") (A")
                 (A") (A") (A") (A") (A") (A") (A") (A") (A") (A")
                 (A") (A") (A") (A") (A") (A") (A") (A") (A") (A")
                 (A") (A") (A") (A") (A") (A")
 Keep R1 ints in memory in symmetry-blocked form, NReq=7206319.
 Requested convergence on RMS density matrix=1.00D-08 within 128 cycles.
 Requested convergence on MAX density matrix=1.00D-06.
 Requested convergence on             energy=1.00D-06.
 No special actions if energy rises.
 An orbital has undefined symmetry, so N**3 symmetry is turned off.
 SCF Done:  E(RB3LYP) =  -189.234738773     A.U. after   11 cycles
            NFock= 11  Conv=0.14D-08     -V/T= 2.0057
 Calling FoFJK, ICntrl=      2127 FMM=F ISym2X=1 I1Cent= 0 IOpClX= 0 NMat=1 NMatS=1 NMatT=0.
 ***** Axes restored to original set *****
 -------------------------------------------------------------------
 Center     Atomic                   Forces (Hartrees/Bohr)
 Number     Number              X              Y              Z
 -------------------------------------------------------------------
      1        6           0.072122464    0.000000000    0.036658922
      2        8          -0.015555636    0.000000000   -0.005835930
      3        8          -0.009593121    0.000000000   -0.008706104
      4        1          -0.046973707    0.000000000   -0.022116888
 -------------------------------------------------------------------
 Cartesian Forces:  Max     0.072122464 RMS     0.028409318
 -----------------------------------------------------------------------------------------------
                       Internal Coordinate Forces (Hartree/Bohr or radian)
  Cent   Atom   N1       Length/X         N2         Alpha/Y        N3         Beta/Z          J
 -----------------------------------------------------------------------------------------------
      1  C 
      2  O        1  -0.005836(     1)
      3  O        1  -0.002959(     2)      2   0.030235(     4)
      4  H        1   0.051798(     3)      2  -0.007056(     5)      3   0.000000(     6)     0
 -----------------------------------------------------------------------------------------------
 Internal  Forces:  Max     0.051798194 RMS     0.024798489

 GradGradGradGradGradGradGradGradGradGradGradGradGradGradGradGradGradGrad
 Berny optimization.
 Search for a local minimum.
 Step number   7 out of a maximum of   20
 All quantities printed in internal units (Hartrees-Bohrs-Radians)
 Update second derivatives using D2CorN and points    3    4    7
 The second derivative matrix:
                          R1        R2        A1        A2
           R1           2.24094
           R2           0.03409   0.60634
           A1           0.07741  -0.00074   0.11790
           A2           0.00240   0.00089   0.04092   0.08023
 ITU=  0  0  0  0  1
     Eigenvalues ---    0.05327   0.14203   0.60564   2.24447
 RFO step:  Lambda=-1.54172006D-02 EMin= 5.32723599D-02
 Quartic linear search produced a step of -0.02443.
 Variable       Old X    -DE/DX   Delta X   Delta X   Delta X     New X
                                 (Linear)    (Quad)   (Total)
    R1        2.39725  -0.00880  -0.00649  -0.01148  -0.01798   2.37928
    R2        1.98528   0.05180   0.00003   0.08546   0.08549   2.07077
    A1        2.17416   0.03023  -0.00004   0.30410   0.30406   2.47822
    A2        2.07935  -0.00706  -0.00003  -0.20488  -0.20491   1.87445
         Item               Value     Threshold  Converged?
 Maximum Force            0.051798     0.000450     NO 
 RMS     Force            0.030514     0.000300     NO 
 Maximum Displacement     0.304061     0.001800     NO 
 RMS     Displacement     0.188461     0.001200     NO 
 Predicted change in Energy=-8.564219D-03
 GradGradGradGradGradGradGradGradGradGradGradGradGradGradGradGradGradGrad

 ---------------------------------------------------------------------------------------------------
                            Z-MATRIX (ANGSTROMS AND DEGREES)
   CD    Cent   Atom    N1       Length/X        N2       Alpha/Y        N3        Beta/Z          J
 ---------------------------------------------------------------------------------------------------
      1      1  C 
      2      2  O        1   1.259058(     1)
      3      3  O        1   1.259058(     2)      2  141.992(     4)
      4      4  H        1   1.095804(     3)      2  107.398(     5)      3  180.000(     6)      0
 ---------------------------------------------------------------------------------------------------
                         Z-Matrix orientation:                         
 ---------------------------------------------------------------------
 Center     Atomic      Atomic             Coordinates (Angstroms)
 Number     Number       Type             X           Y           Z
 ---------------------------------------------------------------------
      1          6           0        0.000000    0.000000    0.000000
      2          8           0        0.000000    0.000000    1.259058
      3          8           0        0.775296    0.000000   -0.992041
      4          1           0       -1.045672    0.000000   -0.327651
 ---------------------------------------------------------------------
                    Distance matrix (angstroms):
                    1          2          3          4
     1  C    0.000000
     2  O    1.259058   0.000000
     3  O    1.259058   2.380867   0.000000
     4  H    1.095804   1.900284   1.938385   0.000000
 Stoichiometry    CHO2(1-)
 Framework group  CS[SG(CHO2)]
 Deg. of freedom     5
 Full point group                 CS      NOp   2
 Largest Abelian subgroup         CS      NOp   2
 Largest concise Abelian subgroup C1      NOp   1
                         Standard orientation:                         
 ---------------------------------------------------------------------
 Center     Atomic      Atomic             Coordinates (Angstroms)
 Number     Number       Type             X           Y           Z
 ---------------------------------------------------------------------
      1          6           0        0.000000    0.237592    0.000000
      2          8           0        1.188110   -0.179087    0.000000
      3          8           0       -1.192719   -0.165704    0.000000
      4          1           0        0.036872    1.332775    0.000000
 ---------------------------------------------------------------------
 Rotational constants (GHZ):         149.5151340          11.1477061          10.3742145
 Standard basis: Aug-CC-pVDZ (5D, 7F)
 There are    61 symmetry adapted cartesian basis functions of A'  symmetry.
 There are    23 symmetry adapted cartesian basis functions of A"  symmetry.
 There are    55 symmetry adapted basis functions of A'  symmetry.
 There are    23 symmetry adapted basis functions of A"  symmetry.
    78 basis functions,   140 primitive gaussians,    84 cartesian basis functions
    12 alpha electrons       12 beta electrons
       nuclear repulsion energy        61.8824561579 Hartrees.
 NAtoms=    4 NActive=    4 NUniq=    4 SFac= 1.00D+00 NAtFMM=   60 NAOKFM=F Big=F
 Integral buffers will be    131072 words long.
 Raffenetti 2 integral format.
 Two-electron integral symmetry is turned on.
 One-electron integrals computed using PRISM.
 NBasis=    78 RedAO= T EigKep=  7.20D-04  NBF=    55    23
 NBsUse=    78 1.00D-06 EigRej= -1.00D+00 NBFU=    55    23
 Initial guess from the checkpoint file:  "Formate.chk"
 B after Tr=     0.000000    0.000000    0.000000
         Rot=    0.999982    0.000000    0.000000    0.005968 Ang=   0.68 deg.
 Initial guess orbital symmetries:
       Occupied  (A') (A') (A') (A') (A') (A') (A') (A') (A") (A")
                 (A') (A')
       Virtual   (A') (A') (A') (A") (A") (A') (A') (A') (A") (A')
                 (A") (A') (A') (A') (A") (A') (A') (A') (A') (A")
                 (A") (A') (A') (A') (A") (A') (A') (A') (A') (A")
                 (A') (A') (A") (A") (A") (A') (A') (A') (A') (A")
                 (A') (A") (A") (A') (A') (A') (A') (A") (A') (A")
                 (A') (A') (A') (A') (A') (A') (A") (A") (A') (A')
                 (A") (A") (A') (A') (A') (A')
 ExpMin= 2.97D-02 ExpMax= 1.17D+04 ExpMxC= 4.01D+02 IAcc=3 IRadAn=         5 AccDes= 0.00D+00
 Harris functional with IExCor=  402 and IRadAn=       5 diagonalized for initial guess.
 HarFok:  IExCor=  402 AccDes= 0.00D+00 IRadAn=         5 IDoV= 1 UseB2=F ITyADJ=14
 ICtDFT=  3500011 ScaDFX=  1.000000  1.000000  1.000000  1.000000
 FoFCou: FMM=F IPFlag=           0 FMFlag=      100000 FMFlg1=           0
         NFxFlg=           0 DoJE=T BraDBF=F KetDBF=T FulRan=T
         wScrn=  0.000000 ICntrl=       500 IOpCl=  0 I1Cent=   200000004 NGrid=           0
         NMat0=    1 NMatS0=      1 NMatT0=    0 NMatD0=    1 NMtDS0=    0 NMtDT0=    0
 Petite list used in FoFCou.
 Keep R1 ints in memory in symmetry-blocked form, NReq=7206319.
 Requested convergence on RMS density matrix=1.00D-08 within 128 cycles.
 Requested convergence on MAX density matrix=1.00D-06.
 Requested convergence on             energy=1.00D-06.
 No special actions if energy rises.
 SCF Done:  E(RB3LYP) =  -189.230400983     A.U. after   12 cycles
            NFock= 12  Conv=0.40D-08     -V/T= 2.0058
 Calling FoFJK, ICntrl=      2127 FMM=F ISym2X=1 I1Cent= 0 IOpClX= 0 NMat=1 NMatS=1 NMatT=0.
 ***** Axes restored to original set *****
 -------------------------------------------------------------------
 Center     Atomic                   Forces (Hartrees/Bohr)
 Number     Number              X              Y              Z
 -------------------------------------------------------------------
      1        6          -0.030588774    0.000000000   -0.009243225
      2        8           0.036789527    0.000000000    0.002720754
      3        8           0.024436155    0.000000000    0.021382588
      4        1          -0.030636908    0.000000000   -0.014860117
 -------------------------------------------------------------------
 Cartesian Forces:  Max     0.036789527 RMS     0.019569888
 -----------------------------------------------------------------------------------------------
                       Internal Coordinate Forces (Hartree/Bohr or radian)
  Cent   Atom   N1       Length/X         N2         Alpha/Y        N3         Beta/Z          J
 -----------------------------------------------------------------------------------------------
      1  C 
      2  O        1   0.002721(     1)
      3  O        1  -0.001801(     2)      2  -0.077138(     4)
      4  H        1   0.033679(     3)      2   0.010395(     5)      3   0.000000(     6)     0
[...]
 IMax=3 JMax=2 DiffMx= 0.00D+00
 G2DrvN: will do     5 centers at a time, making    1 passes.
 Calling FoFCou, ICntrl=  3107 FMM=F I1Cent=   0 AccDes= 0.00D+00.
 End of G2Drv F.D. properties file   721 does not exist.
 End of G2Drv F.D. properties file   722 does not exist.
 End of G2Drv F.D. properties file   788 does not exist.
          IDoAtm=1111
          Differentiating once with respect to electric field.
                with respect to dipole field.
          Differentiating once with respect to nuclear coordinates.
 Keep R1 ints in memory in symmetry-blocked form, NReq=7208332.
          There are    15 degrees of freedom in the 1st order CPHF.  IDoFFX=6 NUNeed=     3.
     12 vectors produced by pass  0 Test12= 5.28D-15 6.67D-09 XBig12= 4.18D+01 4.22D+00.
 AX will form    12 AO Fock derivatives at one time.
     12 vectors produced by pass  1 Test12= 5.28D-15 6.67D-09 XBig12= 3.14D+01 1.70D+00.
     12 vectors produced by pass  2 Test12= 5.28D-15 6.67D-09 XBig12= 2.96D-01 1.88D-01.
     12 vectors produced by pass  3 Test12= 5.28D-15 6.67D-09 XBig12= 3.01D-03 1.92D-02.
     12 vectors produced by pass  4 Test12= 5.28D-15 6.67D-09 XBig12= 1.02D-05 1.20D-03.
     12 vectors produced by pass  5 Test12= 5.28D-15 6.67D-09 XBig12= 2.51D-08 5.08D-05.
      7 vectors produced by pass  6 Test12= 5.28D-15 6.67D-09 XBig12= 4.21D-11 1.99D-06.
      2 vectors produced by pass  7 Test12= 5.28D-15 6.67D-09 XBig12= 4.37D-14 6.46D-08.
 InvSVY:  IOpt=1 It=  1 EMax= 7.77D-16
 Solved reduced A of dimension    81 with    12 vectors.
 Isotropic polarizability for W=    0.000000       34.03 Bohr**3.
 End of Minotr F.D. properties file   721 does not exist.
 End of Minotr F.D. properties file   722 does not exist.
 End of Minotr F.D. properties file   788 does not exist.

 **********************************************************************

            Population analysis using the SCF Density.

 **********************************************************************

 Orbital symmetries:
       Occupied  (A') (A') (A') (A') (A') (A') (A') (A') (A") (A")
                 (A') (A')
       Virtual   (A') (A') (A') (A") (A") (A') (A') (A') (A") (A')
                 (A") (A') (A') (A') (A') (A") (A') (A') (A') (A")
                 (A") (A') (A') (A') (A") (A') (A') (A') (A') (A")
                 (A') (A") (A') (A") (A") (A') (A') (A') (A') (A")
                 (A') (A") (A") (A') (A') (A') (A') (A") (A') (A")
                 (A') (A') (A') (A') (A') (A') (A") (A") (A') (A')
                 (A") (A") (A') (A') (A') (A')
 The electronic state is 1-A'.
 Alpha  occ. eigenvalues --  -18.89335 -18.89334 -10.07059  -0.82022  -0.73969
 Alpha  occ. eigenvalues --   -0.33984  -0.23699  -0.20436  -0.18652  -0.05487
 Alpha  occ. eigenvalues --   -0.04244  -0.03708
 Alpha virt. eigenvalues --    0.12859   0.18713   0.18882   0.19184   0.24779
 Alpha virt. eigenvalues --    0.25087   0.30582   0.31481   0.32642   0.33835
 Alpha virt. eigenvalues --    0.37489   0.38183   0.38917   0.43328   0.47142
 Alpha virt. eigenvalues --    0.47447   0.53169   0.56893   0.62858   0.66408
 Alpha virt. eigenvalues --    0.69686   0.69927   0.74332   0.74827   0.84057
 Alpha virt. eigenvalues --    0.85458   0.86676   0.93855   1.05925   1.14370
 Alpha virt. eigenvalues --    1.16080   1.19346   1.21842   1.24882   1.27763
 Alpha virt. eigenvalues --    1.32060   1.32503   1.38817   1.41211   1.53836
 Alpha virt. eigenvalues --    1.57271   1.59531   1.73927   1.77175   1.81737
 Alpha virt. eigenvalues --    1.84731   1.97104   2.07053   2.07315   2.14329
 Alpha virt. eigenvalues --    2.18725   2.38951   2.51992   2.63209   2.95390
 Alpha virt. eigenvalues --    3.19986   3.52221   3.54430   3.54841   3.57692
 Alpha virt. eigenvalues --    3.59500   3.64452   3.65256   3.73052   3.88128
 Alpha virt. eigenvalues --    3.92068
          Condensed to atoms (all electrons):
               1          2          3          4
     1  C    4.528403   0.330584   0.330581   0.074875
     2  O    0.330584   8.503212  -0.084098  -0.110209
     3  O    0.330581  -0.084098   8.503216  -0.110210
     4  H    0.074875  -0.110209  -0.110210   1.602124
 Mulliken charges:
               1
     1  C    0.735557
     2  O   -0.639489
     3  O   -0.639488
     4  H   -0.456580
 Sum of Mulliken charges =  -1.00000
 Mulliken charges with hydrogens summed into heavy atoms:
               1
     1  C    0.278977
     2  O   -0.639489
     3  O   -0.639488
 APT charges:
               1
     1  C    1.314117
     2  O   -1.039805
     3  O   -1.039807
     4  H   -0.234505
 Sum of APT charges =  -1.00000
 APT charges with hydrogens summed into heavy atoms:
               1
     1  C    1.079612
     2  O   -1.039805
     3  O   -1.039807
 Electronic spatial extent (au):  <R**2>=            139.4422
 Charge=             -1.0000 electrons
 Dipole moment (field-independent basis, Debye):
    X=              0.0000    Y=              1.3838    Z=              0.0000  Tot=              1.3838
 Quadrupole moment (field-independent basis, Debye-Ang):
   XX=            -29.8470   YY=            -21.6084   ZZ=            -19.4290
   XY=              0.0000   XZ=              0.0000   YZ=              0.0000
 Traceless Quadrupole moment (field-independent basis, Debye-Ang):
   XX=             -6.2188   YY=              2.0197   ZZ=              4.1991
   XY=              0.0000   XZ=              0.0000   YZ=              0.0000
 Octapole moment (field-independent basis, Debye-Ang**2):
  XXX=              0.0000  YYY=             -2.8616  ZZZ=              0.0000  XYY=              0.0000
  XXY=              0.5032  XXZ=              0.0000  XZZ=              0.0000  YZZ=             -0.5915
  YYZ=              0.0000  XYZ=              0.0000
 Hexadecapole moment (field-independent basis, Debye-Ang**3):
 XXXX=           -146.2130 YYYY=            -54.6873 ZZZZ=            -22.8679 XXXY=             -0.0001
 XXXZ=              0.0000 YYYX=             -0.0001 YYYZ=              0.0000 ZZZX=              0.0000
 ZZZY=              0.0000 XXYY=            -31.3669 XXZZ=            -26.4913 YYZZ=            -12.3799
 XXYZ=              0.0000 YYXZ=              0.0000 ZZXY=              0.0000
 N-N= 6.218512833976D+01 E-N=-5.764472018526D+02  KE= 1.880906856479D+02
 Symmetry A'   KE= 1.802730363184D+02
 Symmetry A"   KE= 7.817649329505D+00
  Exact polarizability:  40.962   0.000  38.534   0.000   0.000  22.589
 Approx polarizability:  58.660   0.000  46.702   0.000   0.000  28.678
 Calling FoFJK, ICntrl=    100127 FMM=F ISym2X=1 I1Cent= 0 IOpClX= 0 NMat=1 NMatS=1 NMatT=0.
 Full mass-weighted force constant matrix:
 Low frequencies ---   -0.0017   -0.0010   -0.0009    7.6731    8.2652   11.3988
 Low frequencies ---  732.0117 1030.3101 1330.4698
 Diagonal vibrational polarizability:
        8.4826455       5.5682700       0.0270338
 Harmonic frequencies (cm**-1), IR intensities (KM/Mole), Raman scattering
 activities (A**4/AMU), depolarization ratios for plane and unpolarized
 incident light, reduced masses (AMU), force constants (mDyne/A),
 and normal coordinates:
                      1                      2                      3
                     A'                     A"                     A'
 Frequencies --    732.0117              1030.3101              1330.4698
 Red. masses --     11.6471                 1.8516                11.6930
 Frc consts  --      3.6771                 1.1581                12.1951
 IR Inten    --     21.5601                 1.0664               137.0634
  Atom  AN      X      Y      Z        X      Y      Z        X      Y      Z
     1   6     0.00   0.51   0.00     0.00   0.00  -0.26     0.00   0.63   0.00
     2   8    -0.46  -0.21   0.00     0.00   0.00   0.07     0.39  -0.25   0.00
     3   8     0.46  -0.21   0.00     0.00   0.00   0.07    -0.39  -0.25   0.00
     4   1     0.00   0.47   0.00     0.00   0.00   0.96     0.00   0.43   0.00
                      4                      5                      6
                     A'                     A'                     A'
 Frequencies --   1355.3387              1646.3549              2592.6989
 Red. masses --      1.0944                11.1394                 1.0634
 Frc consts  --      1.1844                17.7894                 4.2118
 IR Inten    --     11.2901               837.7093               599.9212
  Atom  AN      X      Y      Z        X      Y      Z        X      Y      Z
     1   6    -0.01   0.00   0.00     0.81   0.00   0.00     0.00  -0.07   0.00
     2   8    -0.03   0.04   0.00    -0.29   0.12   0.00     0.00  -0.01   0.00
     3   8    -0.03  -0.04   0.00    -0.29  -0.12   0.00     0.00  -0.01   0.00
     4   1     1.00   0.00   0.00    -0.39   0.00   0.00     0.00   1.00   0.00

 -------------------
 - Thermochemistry -
 -------------------
 Temperature   298.150 Kelvin.  Pressure   1.00000 Atm.
 Atom     1 has atomic number  6 and mass  12.00000
 Atom     2 has atomic number  8 and mass  15.99491
 Atom     3 has atomic number  8 and mass  15.99491
 Atom     4 has atomic number  1 and mass   1.00783
 Molecular mass:    44.99765 amu.
 Principal axes and moments of inertia in atomic units:
                           1         2         3
     Eigenvalues --    16.93510 148.77637 165.71147
           X            1.00000   0.00000   0.00000
           Y            0.00000   1.00000   0.00000
           Z            0.00000   0.00000   1.00000
 This molecule is an asymmetric top.
 Rotational symmetry number  1.
 Rotational temperatures (Kelvin)      5.11446     0.58218     0.52268
 Rotational constants (GHZ):         106.56809    12.13056    10.89086
 Zero-point vibrational energy      51960.9 (Joules/Mol)
                                   12.41895 (Kcal/Mol)
 Vibrational temperatures:   1053.20  1482.39  1914.25  1950.03  2368.74
          (Kelvin)           3730.32
 
 Zero-point correction=                           0.019791 (Hartree/Particle)
 Thermal correction to Energy=                    0.022778
 Thermal correction to Enthalpy=                  0.023722
 Thermal correction to Gibbs Free Energy=        -0.004028
 Sum of electronic and zero-point Energies=           -189.220733
 Sum of electronic and thermal Energies=              -189.217746
 Sum of electronic and thermal Enthalpies=            -189.216802
 Sum of electronic and thermal Free Energies=         -189.244552
 
                     E (Thermal)             CV                S
                      KCal/Mol        Cal/Mol-Kelvin    Cal/Mol-Kelvin
 Total                   14.293              7.379             58.405
 Electronic               0.000              0.000              0.000
 Translational            0.889              2.981             37.338
 Rotational               0.889              2.981             20.662
 Vibrational             12.516              1.417              0.405
                       Q            Log10(Q)             Ln(Q)
 Total Bot       0.712296D+02          1.852661          4.265909
 Total V=0       0.903269D+11         10.955817         25.226701
 Vib (Bot)       0.820804D-09         -9.085761        -20.920737
 Vib (V=0)       0.104087D+01          0.017396          0.040055
 Electronic      0.100000D+01          0.000000          0.000000
 Translational   0.118642D+08          7.074239         16.289037
 Rotational      0.731447D+04          3.864183          8.897610
 ***** Axes restored to original set *****
 -------------------------------------------------------------------
 Center     Atomic                   Forces (Hartrees/Bohr)
 Number     Number              X              Y              Z
 -------------------------------------------------------------------
      1        6           0.000042343    0.000000000    0.000017979
      2        8           0.000004443    0.000000000   -0.000092549
      3        8          -0.000064649    0.000000000    0.000063502
      4        1           0.000017863    0.000000000    0.000011068
 -------------------------------------------------------------------
 Cartesian Forces:  Max     0.000092549 RMS     0.000040161
 -----------------------------------------------------------------------------------------------
                       Internal Coordinate Forces (Hartree/Bohr or radian)
  Cent   Atom   N1       Length/X         N2         Alpha/Y        N3         Beta/Z          J
 -----------------------------------------------------------------------------------------------
      1  C 
      2  O        1  -0.000093(     1)
      3  O        1  -0.000090(     2)      2  -0.000016(     4)
      4  H        1  -0.000021(     3)      2  -0.000005(     5)      3   0.000000(     6)     0
 -----------------------------------------------------------------------------------------------
 Internal  Forces:  Max     0.000092549 RMS     0.000053934

 GradGradGradGradGradGradGradGradGradGradGradGradGradGradGradGradGradGrad
 Berny optimization.
 Search for a local minimum.
 Step number   1 out of a maximum of    2
 All quantities printed in internal units (Hartrees-Bohrs-Radians)
 Second derivative matrix not updated -- analytic derivatives used.
 The second derivative matrix:
                          R1        R2        A1        A2
           R1           1.42674
           R2           0.07715   0.24319
           A1           0.06542  -0.04168   0.48150
           A2           0.00000   0.00000   0.15257   0.30512
 ITU=  0
     Eigenvalues ---    0.20041   0.24933   0.57086   1.43595
 Angle between quadratic step and forces=  15.29 degrees.
 Linear search not attempted -- first point.
 Variable       Old X    -DE/DX   Delta X   Delta X   Delta X     New X
                                 (Linear)    (Quad)   (Total)
    R1        2.37731  -0.00018   0.00000  -0.00012  -0.00012   2.37719
    R2        2.15754  -0.00002   0.00000  -0.00005  -0.00005   2.15749
    A1        2.27288  -0.00002   0.00000  -0.00002  -0.00002   2.27286
    A2        2.00517  -0.00001   0.00000  -0.00001  -0.00001   2.00516
         Item               Value     Threshold  Converged?
 Maximum Force            0.000183     0.000450     YES
 RMS     Force            0.000092     0.000300     YES
 Maximum Displacement     0.000125     0.001800     YES
 RMS     Displacement     0.000068     0.001200     YES
 Predicted change in Energy=-1.208792D-08
 Optimization completed.
    -- Stationary point found.
                       ----------------------------
                       !   Optimized Parameters   !
                       ! (Angstroms and Degrees)  !
 ----------------------                            ----------------------
 !      Name          Value   Derivative information (Atomic Units)     !
 ------------------------------------------------------------------------
 !       R1          1.258    -DE/DX =   -0.0002                        !
 !       R2          1.1417   -DE/DX =    0.0                           !
 !       A1        130.2262   -DE/DX =    0.0                           !
 !       A2        114.8879   -DE/DX =    0.0                           !
 ------------------------------------------------------------------------
 GradGradGradGradGradGradGradGradGradGradGradGradGradGradGradGradGradGrad


 ----------------------------------------------------------------------

 Electric dipole moment (input orientation):
 (Debye = 10**-18 statcoulomb cm , SI units = C m)
                  (au)            (Debye)         (10**-30 SI)
   Tot        0.544438D+00      0.138382D+01      0.461594D+01
   x         -0.493882D+00     -0.125532D+01     -0.418730D+01
   y          0.000000D+00      0.000000D+00      0.000000D+00
   z         -0.229116D+00     -0.582354D+00     -0.194252D+01

 Dipole polarizability, Alpha (input orientation).
 (esu units = cm**3 , SI units = C**2 m**2 J**-1)
 Alpha(0;0):
               (au)            (10**-24 esu)      (10**-40 SI)
   iso        0.340283D+02      0.504248D+01      0.561052D+01
   aniso      0.172876D+02      0.256176D+01      0.285034D+01
   xx         0.389639D+02      0.577386D+01      0.642429D+01
   yx         0.000000D+00      0.000000D+00      0.000000D+00
   yy         0.225889D+02      0.334733D+01      0.372440D+01
   zx        -0.926988D+00     -0.137365D+00     -0.152840D+00
   zy         0.000000D+00      0.000000D+00      0.000000D+00
   zz         0.405322D+02      0.600626D+01      0.668286D+01

 ----------------------------------------------------------------------

 Dipole orientation:
     6          0.00000000          0.00000000          0.00000000
     8         -2.15655575          0.00000000         -1.00044396
     8          2.15655897          0.00000000         -1.00043702
     1          0.00003502          0.00000000          2.15754314

 Electric dipole moment (dipole orientation):
 (Debye = 10**-18 statcoulomb cm , SI units = C m)
                  (au)            (Debye)         (10**-30 SI)
   Tot        0.544438D+00      0.138382D+01      0.461594D+01
   x          0.000000D+00      0.000000D+00      0.000000D+00
   y          0.000000D+00      0.000000D+00      0.000000D+00
   z          0.544438D+00      0.138382D+01      0.461594D+01

 Dipole polarizability, Alpha (dipole orientation).
 (esu units = cm**3 , SI units = C**2 m**2 J**-1)
 Alpha(0;0):
               (au)            (10**-24 esu)      (10**-40 SI)
   iso        0.340283D+02      0.504248D+01      0.561052D+01
   aniso      0.172876D+02      0.256176D+01      0.285034D+01
   xx         0.409623D+02      0.606998D+01      0.675376D+01
   yx         0.000000D+00      0.000000D+00      0.000000D+00
   yy         0.225889D+02      0.334733D+01      0.372440D+01
   zx         0.457239D-04      0.677558D-05      0.753885D-05
   zy         0.000000D+00      0.000000D+00      0.000000D+00
   zz         0.385339D+02      0.571014D+01      0.635339D+01

 ----------------------------------------------------------------------
 1|1|UNPC-DESKTOP-F4NP0R6|Freq|RB3LYP|Aug-CC-pVDZ|C1H1O2(1-)|GARRETT|22
 -Jul-2018|1||#N Geom=AllCheck Guess=TCheck SCRF=Check GenChk RB3LYP/Au
 g-CC-pVDZ Freq||Formate||-1,1|C|O,1,R1|O,1,R1,2,A1|H,1,R2,2,A2,3,180.,
 0||R1=1.25802028|R2=1.14172266|A1=130.22623754|A2=114.88790343||Versio
 n=EM64W-G16RevB.01|State=1-A'|HF=-189.2405241|RMSD=1.198e-009|RMSF=4.0
 16e-005|ZeroPoint=0.0197909|Thermal=0.0227781|Dipole=-0.4938817,0.,-0.
 2291158|DipoleDeriv=1.6409637,0.,-0.3697334,0.,0.034923,0.,-0.3697331,
 0.,2.2664649,-0.7114427,0.,-0.0545477,0.,-0.5350639,0.,0.1648764,0.,-1
 .8729093,-1.3341061,0.,0.6915438,0.,-0.5350649,0.,0.4721297,0.,-1.2502
 5,-0.5954149,0.,-0.2672626,0.,0.0352058,0.,-0.2672731,0.,-0.1433056|Po
 lar=38.9639389,0.,22.5888689,-0.926988,0.,40.5322354|Quadrupole=0.4168
 451,3.1219388,-3.5387838,0.,2.3382844,0.|PG=CS [SG(C1H1O2)]|NImag=0||0
 .61484018,0.,0.20342474,-0.11526623,0.,0.80984049,-0.09915218,0.,-0.02
 628422,0.08523421,0.,-0.06949791,0.,0.,0.02376365,-0.02707699,0.,-0.50
 402836,-0.00095205,0.,0.62391121,-0.36148062,0.,0.19481269,0.01730625,
 0.,0.05114547,0.39831244,0.,-0.06949746,0.,0.,0.02372729,0.,0.,0.02376
 240,0.19560536,0.,-0.24170078,0.06159641,0.,-0.07805679,-0.26576597,0.
 ,0.31083613,-0.15420738,0.,-0.05326224,-0.00338828,0.,-0.02311642,-0.0
 5413806,0.,0.00856421,0.21173373,0.,-0.06442937,0.,0.,0.02200697,0.,0.
 ,0.02200777,0.,0.,0.02041462,-0.05326213,0.,-0.06411135,-0.03436014,0.
 ,-0.04182606,0.01980781,0.,0.00892143,0.06781446,0.,0.09701598||-0.000
 04234,0.,-0.00001798,-0.00000444,0.,0.00009255,0.00006465,0.,-0.000063
 50,-0.00001786,0.,-0.00001107|||@


 Discoveries are often made by not following instructions,
 by going off the main road, by trying the untried.
 -- Frank Tyger
 Job cpu time:       0 days  0 hours  9 minutes 24.0 seconds.
 Elapsed time:       0 days  0 hours  6 minutes 40.1 seconds.
 File lengths (MBytes):  RWF=      7 Int=      0 D2E=      0 Chk=      2 Scr=      1
 Normal termination of Gaussian 16 at Sun Jul 22 19:22:32 2018.
