 Entering Link 1 = C:\G16W\l1.exe PID=     22504.
  
 Copyright (c) 1988-2017, Gaussian, Inc.  All Rights Reserved.
  
 This is part of the Gaussian(R) 16 program.  It is based on
 the Gaussian(R) 09 system (copyright 2009, Gaussian, Inc.),
 the Gaussian(R) 03 system (copyright 2003, Gaussian, Inc.),
 the Gaussian(R) 98 system (copyright 1998, Gaussian, Inc.),
 the Gaussian(R) 94 system (copyright 1995, Gaussian, Inc.),
 the Gaussian 92(TM) system (copyright 1992, Gaussian, Inc.),
 the Gaussian 90(TM) system (copyright 1990, Gaussian, Inc.),
 the Gaussian 88(TM) system (copyright 1988, Gaussian, Inc.),
 the Gaussian 86(TM) system (copyright 1986, Carnegie Mellon
 University), and the Gaussian 82(TM) system (copyright 1983,
 Carnegie Mellon University). Gaussian is a federally registered
 trademark of Gaussian, Inc.
  
 This software contains proprietary and confidential information,
 including trade secrets, belonging to Gaussian, Inc.
  
 This software is provided under written license and may be
 used, copied, transmitted, or stored only in accord with that
 written license.
  
 The following legend is applicable only to US Government
 contracts under FAR:
  
                    RESTRICTED RIGHTS LEGEND
  
 Use, reproduction and disclosure by the US Government is
 subject to restrictions as set forth in subparagraphs (a)
 and (c) of the Commercial Computer Software - Restricted
 Rights clause in FAR 52.227-19.
  
 Gaussian, Inc.
 340 Quinnipiac St., Bldg. 40, Wallingford CT 06492
  
  
 ---------------------------------------------------------------
 Warning -- This program may not be used in any manner that
 competes with the business of Gaussian, Inc. or will provide
 assistance to any competitor of Gaussian, Inc.  The licensee
 of this program is prohibited from giving any competitor of
 Gaussian, Inc. access to this program.  By using this program,
 the user acknowledges that Gaussian, Inc. is engaged in the
 business of creating and licensing software in the field of
 computational chemistry and represents and warrants to the
 licensee that it is not a competitor of Gaussian, Inc. and that
 it will not use this program in any manner prohibited above.
 ---------------------------------------------------------------
  

 Cite this work as:
 Gaussian 16, Revision B.01,
 M. J. Frisch, G. W. Trucks, H. B. Schlegel, G. E. Scuseria, 
 M. A. Robb, J. R. Cheeseman, G. Scalmani, V. Barone, 
 G. A. Petersson, H. Nakatsuji, X. Li, M. Caricato, A. V. Marenich, 
 J. Bloino, B. G. Janesko, R. Gomperts, B. Mennucci, H. P. Hratchian, 
 J. V. Ortiz, A. F. Izmaylov, J. L. Sonnenberg, D. Williams-Young, 
 F. Ding, F. Lipparini, F. Egidi, J. Goings, B. Peng, A. Petrone, 
 T. Henderson, D. Ranasinghe, V. G. Zakrzewski, J. Gao, N. Rega, 
 G. Zheng, W. Liang, M. Hada, M. Ehara, K. Toyota, R. Fukuda, 
 J. Hasegawa, M. Ishida, T. Nakajima, Y. Honda, O. Kitao, H. Nakai, 
 T. Vreven, K. Throssell, J. A. Montgomery, Jr., J. E. Peralta, 
 F. Ogliaro, M. J. Bearpark, J. J. Heyd, E. N. Brothers, K. N. Kudin, 
 V. N. Staroverov, T. A. Keith, R. Kobayashi, J. Normand, 
 K. Raghavachari, A. P. Rendell, J. C. Burant, S. S. Iyengar, 
 J. Tomasi, M. Cossi, J. M. Millam, M. Klene, C. Adamo, R. Cammi, 
 J. W. Ochterski, R. L. Martin, K. Morokuma, O. Farkas, 
 J. B. Foresman, and D. J. Fox, Gaussian, Inc., Wallingford CT, 2016.
 
 ******************************************
 Gaussian 16:  EM64W-G16RevB.01 16-Dec-2017
                24-Jul-2018 
 ******************************************
 %nproc=2
 Will use up to    2 processors via shared memory.
 %mem=4gb
 -------------------------
 # MP2 Aug-cc-pvTZ pop=NBO
 -------------------------
 1/38=1,172=1/1;
 2/12=2,17=6,18=5,40=1/2;
 3/5=16,6=1,7=10,11=9,25=1,30=1/1,2,3;
 4//1;
 5/5=2,38=5/2;
 8/10=1/1;
 9/16=-3/6;
 6/7=2,8=2,9=2,10=2,40=1/1,7;
 99/5=1,9=1/99;
 -------
 Formate
 -------
 Symbolic Z-matrix:
 Charge = -1 Multiplicity = 1
 C
 O                    1    R1
 O                    1    R1       2    A1
 H                    1    R2       2    A2       3     180.     0
       Variables:
  R1                    1.25827                  
  R2                    1.12525                  
  A1                  130.18115                  
  A2                  114.9094                   
 
                          Input orientation:                          
 ---------------------------------------------------------------------
 Center     Atomic      Atomic             Coordinates (Angstroms)
 Number     Number       Type             X           Y           Z
 ---------------------------------------------------------------------
      1          6           0        0.000000    0.000000    0.000000
      2          8           0        0.000000    0.000000    1.258269
      3          8           0        0.961328    0.000000   -0.811843
      4          1           0       -1.020575    0.000000   -0.473938
 ---------------------------------------------------------------------
                    Distance matrix (angstroms):
                    1          2          3          4
     1  C    0.000000
     2  O    1.258269   0.000000
     3  O    1.258269   2.282437   0.000000
     4  H    1.125251   2.010502   2.010502   0.000000
 Stoichiometry    CHO2(1-)
 Framework group  CS[SG(CHO2)]
 Deg. of freedom     5
 Full point group                 CS      NOp   2
 Largest Abelian subgroup         CS      NOp   2
 Largest concise Abelian subgroup C1      NOp   1
                         Standard orientation:                         
 ---------------------------------------------------------------------
 Center     Atomic      Atomic             Coordinates (Angstroms)
 Number     Number       Type             X           Y           Z
 ---------------------------------------------------------------------
      1          6           0        0.000000    0.319747    0.000000
      2          8           0       -1.141219   -0.210218    0.000000
      3          8           0        1.141219   -0.210217    0.000000
      4          1           0       -0.000001    1.444998    0.000000
 ---------------------------------------------------------------------
 Rotational constants (GHZ):         107.5424210          12.1301890          10.9006555
 Standard basis: Aug-CC-pVTZ (5D, 7F)
 There are   129 symmetry adapted cartesian basis functions of A'  symmetry.
 There are    61 symmetry adapted cartesian basis functions of A"  symmetry.
 There are   106 symmetry adapted basis functions of A'  symmetry.
 There are    55 symmetry adapted basis functions of A"  symmetry.
   161 basis functions,   243 primitive gaussians,   190 cartesian basis functions
    12 alpha electrons       12 beta electrons
       nuclear repulsion energy        62.2449018677 Hartrees.
 NAtoms=    4 NActive=    4 NUniq=    4 SFac= 1.00D+00 NAtFMM=   60 NAOKFM=F Big=F
 Integral buffers will be    131072 words long.
 Raffenetti 1 integral format.
 Two-electron integral symmetry is turned on.
 One-electron integrals computed using PRISM.
 NBasis=   161 RedAO= T EigKep=  9.89D-05  NBF=   106    55
 NBsUse=   161 1.00D-06 EigRej= -1.00D+00 NBFU=   106    55
 ExpMin= 2.53D-02 ExpMax= 1.53D+04 ExpMxC= 5.22D+02 IAcc=3 IRadAn=         5 AccDes= 0.00D+00
 Harris functional with IExCor=  205 and IRadAn=       5 diagonalized for initial guess.
 HarFok:  IExCor=  205 AccDes= 0.00D+00 IRadAn=         5 IDoV= 1 UseB2=F ITyADJ=14
 ICtDFT=  3500011 ScaDFX=  1.000000  1.000000  1.000000  1.000000
 FoFCou: FMM=F IPFlag=           0 FMFlag=      100000 FMFlg1=           0
         NFxFlg=           0 DoJE=T BraDBF=F KetDBF=T FulRan=T
         wScrn=  0.000000 ICntrl=       500 IOpCl=  0 I1Cent=   200000004 NGrid=           0
         NMat0=    1 NMatS0=      1 NMatT0=    0 NMatD0=    1 NMtDS0=    0 NMtDT0=    0
 Petite list used in FoFCou.
 Initial guess orbital symmetries:
       Occupied  (A') (A') (A') (A') (A') (A') (A') (A') (A") (A")
                 (A') (A')
       Virtual   (A") (A') (A') (A') (A") (A') (A') (A') (A') (A")
                 (A") (A') (A') (A') (A") (A') (A') (A') (A") (A')
                 (A') (A") (A') (A') (A") (A') (A') (A') (A') (A")
                 (A') (A') (A") (A") (A') (A") (A") (A') (A') (A')
                 (A') (A') (A") (A") (A') (A") (A') (A') (A') (A")
                 (A') (A') (A") (A') (A') (A") (A") (A') (A') (A")
                 (A') (A') (A') (A") (A') (A') (A') (A") (A') (A")
                 (A") (A") (A') (A") (A') (A') (A') (A') (A") (A')
                 (A') (A') (A") (A") (A') (A') (A') (A") (A") (A')
                 (A') (A') (A") (A") (A') (A') (A') (A") (A") (A')
                 (A") (A') (A") (A') (A') (A') (A') (A") (A') (A')
                 (A") (A') (A") (A') (A") (A') (A") (A') (A') (A')
                 (A') (A') (A") (A') (A') (A") (A') (A") (A") (A')
                 (A') (A") (A") (A') (A') (A") (A") (A') (A") (A')
                 (A") (A') (A') (A') (A') (A') (A') (A') (A')
 The electronic state of the initial guess is 1-A'.
 Keep R1 ints in memory in symmetry-blocked form, NReq=128070129.
 Requested convergence on RMS density matrix=1.00D-08 within 128 cycles.
 Requested convergence on MAX density matrix=1.00D-06.
 Requested convergence on             energy=1.00D-06.
 No special actions if energy rises.
 SCF Done:  E(RHF) =  -188.273418259     A.U. after   11 cycles
            NFock= 11  Conv=0.73D-08     -V/T= 2.0017
 ExpMin= 2.53D-02 ExpMax= 1.53D+04 ExpMxC= 5.22D+02 IAcc=3 IRadAn=         5 AccDes= 0.00D+00
 HarFok:  IExCor=  205 AccDes= 0.00D+00 IRadAn=         5 IDoV=-2 UseB2=F ITyADJ=14
 ICtDFT= 12500011 ScaDFX=  1.000000  1.000000  1.000000  1.000000
 Range of M.O.s used for correlation:     4   161
 NBasis=   161 NAE=    12 NBE=    12 NFC=     3 NFV=     0
 NROrb=    158 NOA=     9 NOB=     9 NVA=   149 NVB=   149

 **** Warning!!: The largest alpha MO coefficient is  0.32536754D+02

 Fully in-core method, ICMem=   353742015.
 JobTyp=1 Pass  1 fully in-core, NPsUse=  2.
 Spin components of T(2) and E(2):
     alpha-alpha T2 =       0.2472358329D-01 E2=     -0.8616659295D-01
     alpha-beta  T2 =       0.1295670963D+00 E2=     -0.4854641432D+00
     beta-beta   T2 =       0.2472358329D-01 E2=     -0.8616659295D-01
 ANorm=    0.1085824232D+01
 E2 =    -0.6577973291D+00 EUMP2 =    -0.18893121558759D+03

 **********************************************************************

            Population analysis using the SCF Density.

 **********************************************************************

 Orbital symmetries:
       Occupied  (A') (A') (A') (A') (A') (A') (A') (A') (A") (A')
                 (A') (A")
       Virtual   (A') (A') (A") (A') (A') (A') (A') (A") (A") (A')
                 (A') (A') (A") (A') (A") (A') (A') (A') (A') (A")
                 (A") (A') (A') (A") (A') (A') (A') (A') (A') (A")
                 (A') (A') (A") (A') (A") (A") (A') (A') (A") (A')
                 (A') (A") (A') (A') (A") (A') (A") (A') (A') (A")
                 (A') (A") (A') (A') (A') (A") (A") (A') (A') (A")
                 (A') (A') (A') (A") (A') (A') (A") (A') (A') (A")
                 (A") (A") (A') (A") (A') (A') (A') (A') (A") (A')
                 (A') (A') (A") (A") (A') (A') (A') (A") (A") (A')
                 (A') (A') (A") (A") (A') (A') (A") (A') (A") (A')
                 (A') (A") (A') (A") (A') (A') (A') (A") (A') (A')
                 (A") (A') (A') (A") (A") (A") (A') (A') (A') (A')
                 (A') (A') (A") (A') (A') (A") (A') (A") (A") (A')
                 (A') (A") (A") (A') (A") (A') (A') (A") (A') (A")
                 (A") (A') (A') (A') (A') (A') (A') (A') (A')
 The electronic state is 1-A'.
 Alpha  occ. eigenvalues --  -20.28904 -20.28901 -11.12516  -1.15365  -1.05879
 Alpha  occ. eigenvalues --   -0.55699  -0.42820  -0.38618  -0.33951  -0.20871
 Alpha  occ. eigenvalues --   -0.18964  -0.18657
 Alpha virt. eigenvalues --    0.14384   0.21299   0.21403   0.21703   0.28057
 Alpha virt. eigenvalues --    0.31802   0.32769   0.33885   0.36460   0.37013
 Alpha virt. eigenvalues --    0.39210   0.41836   0.42147   0.45696   0.49175
 Alpha virt. eigenvalues --    0.50049   0.51607   0.54148   0.58142   0.59209
 Alpha virt. eigenvalues --    0.61871   0.69783   0.70035   0.72303   0.77676
 Alpha virt. eigenvalues --    0.82272   0.86752   0.92000   0.93216   0.96319
 Alpha virt. eigenvalues --    1.01012   1.01266   1.05316   1.05355   1.06427
 Alpha virt. eigenvalues --    1.09655   1.12069   1.12312   1.13221   1.15763
 Alpha virt. eigenvalues --    1.21483   1.21920   1.22458   1.26024   1.26270
 Alpha virt. eigenvalues --    1.27885   1.32097   1.38666   1.42981   1.44160
 Alpha virt. eigenvalues --    1.45364   1.55877   1.57402   1.63792   1.65335
 Alpha virt. eigenvalues --    1.71044   1.76980   1.77822   1.81437   1.87725
 Alpha virt. eigenvalues --    1.92556   1.99799   2.07800   2.13668   2.22983
 Alpha virt. eigenvalues --    2.23251   2.41374   2.41573   2.45066   2.50434
 Alpha virt. eigenvalues --    2.57938   2.61431   2.64161   2.64178   2.64724
 Alpha virt. eigenvalues --    2.70077   2.72603   2.73589   2.81591   2.81798
 Alpha virt. eigenvalues --    2.86008   2.88411   2.89073   2.90357   2.98172
 Alpha virt. eigenvalues --    3.09400   3.12678   3.14942   3.15706   3.28024
 Alpha virt. eigenvalues --    3.30121   3.41128   3.43423   3.56114   3.64118
 Alpha virt. eigenvalues --    3.79535   3.79977   3.80291   4.04755   4.11311
 Alpha virt. eigenvalues --    4.20889   4.26858   4.27432   4.30462   4.30551
 Alpha virt. eigenvalues --    4.46966   4.53076   4.54588   4.74661   4.81271
 Alpha virt. eigenvalues --    4.87083   5.21080   5.21190   5.26643   5.27727
 Alpha virt. eigenvalues --    5.39592   5.45048   5.45689   5.81655   6.10926
 Alpha virt. eigenvalues --    6.53609   6.55886   6.84535   6.85735   6.87118
 Alpha virt. eigenvalues --    6.87498   7.07275   7.09320   7.10627   7.19678
 Alpha virt. eigenvalues --    7.29977   7.30811   7.38225   7.43670   7.43879
 Alpha virt. eigenvalues --    7.48336   7.53444   7.54785   7.77533   7.79140
 Alpha virt. eigenvalues --    7.85133   7.86637   7.94978   8.01821   8.18187
 Alpha virt. eigenvalues --    8.21814  13.59963  15.28688  16.61262
          Condensed to atoms (all electrons):
               1          2          3          4
     1  C    4.881801   0.418111   0.418111   0.281239
     2  O    0.418111   8.424983  -0.111485  -0.040640
     3  O    0.418111  -0.111485   8.424983  -0.040640
     4  H    0.281239  -0.040640  -0.040640   0.418841
 Mulliken charges:
               1
     1  C    0.000737
     2  O   -0.690969
     3  O   -0.690969
     4  H    0.381200
 Sum of Mulliken charges =  -1.00000
 Mulliken charges with hydrogens summed into heavy atoms:
               1
     1  C    0.381937
     2  O   -0.690969
     3  O   -0.690969
 Electronic spatial extent (au):  <R**2>=            137.7263
 Charge=             -1.0000 electrons
 Dipole moment (field-independent basis, Debye):
    X=              0.0000    Y=              1.8731    Z=              0.0000  Tot=              1.8731
 Quadrupole moment (field-independent basis, Debye-Ang):
   XX=            -29.7585   YY=            -20.1171   ZZ=            -18.9097
   XY=              0.0000   XZ=              0.0000   YZ=              0.0000
 Traceless Quadrupole moment (field-independent basis, Debye-Ang):
   XX=             -6.8301   YY=              2.8113   ZZ=              4.0187
   XY=              0.0000   XZ=              0.0000   YZ=              0.0000
 Octapole moment (field-independent basis, Debye-Ang**2):
  XXX=              0.0000  YYY=             -0.8674  ZZZ=              0.0000  XYY=              0.0000
  XXY=              0.9685  XXZ=              0.0000  XZZ=              0.0000  YZZ=             -0.2242
  YYZ=              0.0000  XYZ=              0.0000
 Hexadecapole moment (field-independent basis, Debye-Ang**3):
 XXXX=           -138.7653 YYYY=            -42.5860 ZZZZ=            -19.7908 XXXY=              0.0000
 XXXZ=              0.0000 YYYX=              0.0000 YYYZ=              0.0000 ZZZX=              0.0000
 ZZZY=              0.0000 XXYY=            -28.3615 XXZZ=            -24.9977 YYZZ=            -10.2340
 XXYZ=              0.0000 YYXZ=              0.0000 ZZXY=              0.0000
 N-N= 6.224490186765D+01 E-N=-5.765594712316D+02  KE= 1.879457215922D+02
 Symmetry A'   KE= 1.803256549456D+02
 Symmetry A"   KE= 7.620066646614D+00
 ******************************Gaussian NBO Version 3.1******************************
             N A T U R A L   A T O M I C   O R B I T A L   A N D
          N A T U R A L   B O N D   O R B I T A L   A N A L Y S I S
 ******************************Gaussian NBO Version 3.1******************************
       /RESON  / : Allow strongly delocalized NBO set

 Analyzing the SCF density

 Job title: Formate                                                         

 Storage needed:     78527 in NPA,    104229 in NBO ( 536870800 available)
 GSVD:  LWork=       -2871 too small for GESVD, short by       59393 words or       59393 for optimal perf.


 NATURAL POPULATIONS:  Natural atomic orbital occupancies 
                                                          
   NAO  Atom  No  lang   Type(AO)    Occupancy      Energy
 ----------------------------------------------------------
     1    C    1  S      Cor( 1S)     1.99979     -11.00740
     2    C    1  S      Val( 2S)     0.82850       0.09509
     3    C    1  S      Ryd( 3S)     0.01551       1.61993
     4    C    1  S      Ryd( 5S)     0.00028       2.15854
     5    C    1  S      Ryd( 4S)     0.00004       1.97552
     6    C    1  px     Val( 2p)     0.74067       0.31874
     7    C    1  px     Ryd( 5p)     0.01985       1.92222
     8    C    1  px     Ryd( 3p)     0.00017       1.01057
     9    C    1  px     Ryd( 4p)     0.00005       1.72189
    10    C    1  py     Val( 2p)     0.91455       0.23649
    11    C    1  py     Ryd( 5p)     0.00399       1.99720
    12    C    1  py     Ryd( 3p)     0.00051       0.82962
    13    C    1  py     Ryd( 4p)     0.00012       1.94195
    14    C    1  pz     Val( 2p)     0.63796       0.23767
    15    C    1  pz     Ryd( 5p)     0.00207       1.62852
    16    C    1  pz     Ryd( 3p)     0.00005       0.51958
    17    C    1  pz     Ryd( 4p)     0.00017       1.15383
    18    C    1  dxy    Ryd( 5d)     0.00162       4.32179
    19    C    1  dxy    Ryd( 3d)     0.00010       1.96438
    20    C    1  dxy    Ryd( 4d)     0.00000       3.60260
    21    C    1  dxz    Ryd( 5d)     0.00275       3.71049
    22    C    1  dxz    Ryd( 3d)     0.00020       1.54807
    23    C    1  dxz    Ryd( 4d)     0.00000       3.00458
    24    C    1  dyz    Ryd( 5d)     0.00028       3.39546
    25    C    1  dyz    Ryd( 3d)     0.00000       1.42450
    26    C    1  dyz    Ryd( 4d)     0.00000       2.60645
    27    C    1  dx2y2  Ryd( 5d)     0.00311       4.42256
    28    C    1  dx2y2  Ryd( 3d)     0.00008       2.10276
    29    C    1  dx2y2  Ryd( 4d)     0.00006       3.56751
    30    C    1  dz2    Ryd( 5d)     0.00030       4.19019
    31    C    1  dz2    Ryd( 3d)     0.00022       2.16791
    32    C    1  dz2    Ryd( 4d)     0.00002       3.61350
    33    C    1  f(0)   Ryd( 5f)     0.00023       3.38577
    34    C    1  f(0)   Ryd( 4f)     0.00001       2.93053
    35    C    1  f(C1)  Ryd( 4f)     0.00004       3.55371
    36    C    1  f(C1)  Ryd( 5f)     0.00000       3.80303
    37    C    1  f(S1)  Ryd( 5f)     0.00005       3.50736
    38    C    1  f(S1)  Ryd( 4f)     0.00003       2.99521
    39    C    1  f(C2)  Ryd( 5f)     0.00002       3.60512
    40    C    1  f(C2)  Ryd( 4f)     0.00001       3.14542
    41    C    1  f(S2)  Ryd( 5f)     0.00008       3.63529
    42    C    1  f(S2)  Ryd( 4f)     0.00013       2.85336
    43    C    1  f(C3)  Ryd( 4f)     0.00009       4.25476
    44    C    1  f(C3)  Ryd( 5f)     0.00001       4.26880
    45    C    1  f(S3)  Ryd( 4f)     0.00014       4.67169
    46    C    1  f(S3)  Ryd( 5f)     0.00006       6.90935

    47    O    2  S      Cor( 1S)     1.99979     -20.03141
    48    O    2  S      Val( 2S)     1.73622      -0.91941
    49    O    2  S      Ryd( 3S)     0.00109       1.59861
    50    O    2  S      Ryd( 4S)     0.00006       2.46566
    51    O    2  S      Ryd( 5S)     0.00003       7.99633
    52    O    2  px     Val( 2p)     1.61317      -0.14785
    53    O    2  px     Ryd( 4p)     0.00198       1.94263
    54    O    2  px     Ryd( 5p)     0.00016       5.85671
    55    O    2  px     Ryd( 3p)     0.00005       0.92148
    56    O    2  py     Val( 2p)     1.83843      -0.18102
    57    O    2  py     Ryd( 4p)     0.00278       1.27425
    58    O    2  py     Ryd( 5p)     0.00005       5.13183
    59    O    2  py     Ryd( 3p)     0.00006       0.95483
    60    O    2  pz     Val( 2p)     1.66737      -0.12219
    61    O    2  pz     Ryd( 4p)     0.00219       0.94736
    62    O    2  pz     Ryd( 5p)     0.00000       4.78725
    63    O    2  pz     Ryd( 3p)     0.00002       0.80318
    64    O    2  dxy    Ryd( 3d)     0.00762       2.19026
    65    O    2  dxy    Ryd( 4d)     0.00007       4.93162
    66    O    2  dxy    Ryd( 5d)     0.00006       5.30102
    67    O    2  dxz    Ryd( 3d)     0.00488       1.89663
    68    O    2  dxz    Ryd( 4d)     0.00003       4.10883
    69    O    2  dxz    Ryd( 5d)     0.00002       5.06502
    70    O    2  dyz    Ryd( 3d)     0.00224       1.77863
    71    O    2  dyz    Ryd( 4d)     0.00009       3.99950
    72    O    2  dyz    Ryd( 5d)     0.00002       5.08895
    73    O    2  dx2y2  Ryd( 3d)     0.00720       2.19675
    74    O    2  dx2y2  Ryd( 4d)     0.00009       4.63888
    75    O    2  dx2y2  Ryd( 5d)     0.00003       5.18712
    76    O    2  dz2    Ryd( 3d)     0.00257       1.93160
    77    O    2  dz2    Ryd( 4d)     0.00005       4.48681
    78    O    2  dz2    Ryd( 5d)     0.00001       5.24043
    79    O    2  f(0)   Ryd( 4f)     0.00021       3.16932
    80    O    2  f(0)   Ryd( 5f)     0.00001       6.43229
    81    O    2  f(C1)  Ryd( 4f)     0.00010       3.64878
    82    O    2  f(C1)  Ryd( 5f)     0.00003       6.65017
    83    O    2  f(S1)  Ryd( 4f)     0.00003       3.17730
    84    O    2  f(S1)  Ryd( 5f)     0.00000       6.38264
    85    O    2  f(C2)  Ryd( 4f)     0.00016       3.18343
    86    O    2  f(C2)  Ryd( 5f)     0.00000       6.58102
    87    O    2  f(S2)  Ryd( 4f)     0.00039       3.21626
    88    O    2  f(S2)  Ryd( 5f)     0.00002       6.56041
    89    O    2  f(C3)  Ryd( 4f)     0.00072       3.68970
    90    O    2  f(C3)  Ryd( 5f)     0.00004       6.81402
    91    O    2  f(S3)  Ryd( 4f)     0.00049       4.03817
    92    O    2  f(S3)  Ryd( 5f)     0.00002       6.82936

    93    O    3  S      Cor( 1S)     1.99979     -20.03141
    94    O    3  S      Val( 2S)     1.73622      -0.91941
    95    O    3  S      Ryd( 3S)     0.00109       1.59861
    96    O    3  S      Ryd( 4S)     0.00006       2.46566
    97    O    3  S      Ryd( 5S)     0.00003       7.99633
    98    O    3  px     Val( 2p)     1.61317      -0.14785
    99    O    3  px     Ryd( 4p)     0.00198       1.94263
   100    O    3  px     Ryd( 5p)     0.00016       5.85671
   101    O    3  px     Ryd( 3p)     0.00005       0.92148
   102    O    3  py     Val( 2p)     1.83843      -0.18102
   103    O    3  py     Ryd( 4p)     0.00278       1.27425
   104    O    3  py     Ryd( 5p)     0.00005       5.13183
   105    O    3  py     Ryd( 3p)     0.00006       0.95483
   106    O    3  pz     Val( 2p)     1.66737      -0.12219
   107    O    3  pz     Ryd( 4p)     0.00219       0.94736
   108    O    3  pz     Ryd( 5p)     0.00000       4.78725
   109    O    3  pz     Ryd( 3p)     0.00002       0.80318
   110    O    3  dxy    Ryd( 3d)     0.00762       2.19026
   111    O    3  dxy    Ryd( 4d)     0.00007       4.93162
   112    O    3  dxy    Ryd( 5d)     0.00006       5.30102
   113    O    3  dxz    Ryd( 3d)     0.00488       1.89663
   114    O    3  dxz    Ryd( 4d)     0.00003       4.10883
   115    O    3  dxz    Ryd( 5d)     0.00002       5.06502
   116    O    3  dyz    Ryd( 3d)     0.00224       1.77863
   117    O    3  dyz    Ryd( 4d)     0.00009       3.99950
   118    O    3  dyz    Ryd( 5d)     0.00002       5.08895
   119    O    3  dx2y2  Ryd( 3d)     0.00720       2.19675
   120    O    3  dx2y2  Ryd( 4d)     0.00009       4.63889
   121    O    3  dx2y2  Ryd( 5d)     0.00003       5.18712
   122    O    3  dz2    Ryd( 3d)     0.00257       1.93160
   123    O    3  dz2    Ryd( 4d)     0.00005       4.48681
   124    O    3  dz2    Ryd( 5d)     0.00001       5.24043
   125    O    3  f(0)   Ryd( 4f)     0.00021       3.16932
   126    O    3  f(0)   Ryd( 5f)     0.00001       6.43229
   127    O    3  f(C1)  Ryd( 4f)     0.00010       3.64878
   128    O    3  f(C1)  Ryd( 5f)     0.00003       6.65017
   129    O    3  f(S1)  Ryd( 4f)     0.00003       3.17730
   130    O    3  f(S1)  Ryd( 5f)     0.00000       6.38264
   131    O    3  f(C2)  Ryd( 4f)     0.00016       3.18343
   132    O    3  f(C2)  Ryd( 5f)     0.00000       6.58102
   133    O    3  f(S2)  Ryd( 4f)     0.00039       3.21626
   134    O    3  f(S2)  Ryd( 5f)     0.00002       6.56041
   135    O    3  f(C3)  Ryd( 4f)     0.00072       3.68970
   136    O    3  f(C3)  Ryd( 5f)     0.00004       6.81402
   137    O    3  f(S3)  Ryd( 4f)     0.00049       4.03817
   138    O    3  f(S3)  Ryd( 5f)     0.00002       6.82936

   139    H    4  S      Val( 1S)     1.03648       0.14636
   140    H    4  S      Ryd( 3S)     0.00295       1.11109
   141    H    4  S      Ryd( 4S)     0.00007       2.53463
   142    H    4  S      Ryd( 2S)     0.00000       0.62853
   143    H    4  px     Ryd( 2p)     0.00238       0.91961
   144    H    4  px     Ryd( 4p)     0.00001       3.60819
   145    H    4  px     Ryd( 3p)     0.00005       3.43248
   146    H    4  py     Ryd( 2p)     0.00095       1.28061
   147    H    4  py     Ryd( 4p)     0.00083       5.35087
   148    H    4  py     Ryd( 3p)     0.00004       4.03528
   149    H    4  pz     Ryd( 2p)     0.00054       0.78618
   150    H    4  pz     Ryd( 4p)     0.00000       3.30457
   151    H    4  pz     Ryd( 3p)     0.00002       2.90633
   152    H    4  dxy    Ryd( 3d)     0.00016       2.52536
   153    H    4  dxy    Ryd( 4d)     0.00001       4.09164
   154    H    4  dxz    Ryd( 3d)     0.00010       1.91234
   155    H    4  dxz    Ryd( 4d)     0.00001       3.58569
   156    H    4  dyz    Ryd( 3d)     0.00000       2.39549
   157    H    4  dyz    Ryd( 4d)     0.00001       3.86025
   158    H    4  dx2y2  Ryd( 3d)     0.00004       3.38104
   159    H    4  dx2y2  Ryd( 4d)     0.00004       3.98197
   160    H    4  dz2    Ryd( 3d)     0.00004       2.39568
   161    H    4  dz2    Ryd( 4d)     0.00002       3.79023

 WARNING:  Population inversion found on atom  C    1
           Population inversion found on atom  O    2
           Population inversion found on atom  O    3
           Population inversion found on atom  H    4


 Summary of Natural Population Analysis:                  
                                                          
                                       Natural Population 
                Natural  -----------------------------------------------
    Atom  No    Charge         Core      Valence    Rydberg      Total
 -----------------------------------------------------------------------
      C    1    0.82609      1.99979     3.12168    0.05244     5.17391
      O    2   -0.89066      1.99979     6.85519    0.03568     8.89066
      O    3   -0.89066      1.99979     6.85519    0.03568     8.89066
      H    4   -0.04477      0.00000     1.03648    0.00828     1.04477
 =======================================================================
   * Total *   -1.00000      5.99938    17.86854    0.13208    24.00000

                                 Natural Population      
 --------------------------------------------------------
   Core                       5.99938 ( 99.9897% of   6)
   Valence                   17.86854 ( 99.2697% of  18)
   Natural Minimal Basis     23.86792 ( 99.4497% of  24)
   Natural Rydberg Basis      0.13208 (  0.5503% of  24)
 --------------------------------------------------------

    Atom  No          Natural Electron Configuration
 ----------------------------------------------------------------------------
      C    1      [core]2S( 0.83)2p( 2.29)3S( 0.02)5p( 0.03)5d( 0.01)
      O    2      [core]2S( 1.74)2p( 5.12)3d( 0.02)4p( 0.01)
      O    3      [core]2S( 1.74)2p( 5.12)3d( 0.02)4p( 0.01)
      H    4            1S( 1.04)


 NATURAL BOND ORBITAL ANALYSIS:

                       Occupancies       Lewis Structure    Low   High
           Occ.    -------------------  -----------------   occ   occ
  Cycle   Thresh.   Lewis   Non-Lewis     CR  BD  3C  LP    (L)   (NL)   Dev
 =============================================================================
   1(1)    1.90    23.45141   0.54859      3   4   0   5     1      1    0.44
   2(2)    1.90    23.45141   0.54859      3   4   0   5     1      1    0.44
   3(1)    1.80    23.45141   0.54859      3   4   0   5     1      1    0.44
   4(2)    1.80    23.45141   0.54859      3   4   0   5     1      1    0.44
   5(1)    1.70    23.45141   0.54859      3   4   0   5     1      1    0.44
   6(2)    1.70    23.45141   0.54859      3   4   0   5     1      1    0.44
   7(1)    1.60    23.12947   0.87053      3   3   0   6     0      1    0.44
   8(2)    1.60    23.12947   0.87053      3   3   0   6     0      1    0.44
   9(1)    1.50    23.12947   0.87053      3   3   0   6     0      1    0.44
  10(2)    1.50    23.12947   0.87053      3   3   0   6     0      1    0.44
  11(1)    1.90    23.45141   0.54859      3   4   0   5     1      1    0.44
 -----------------------------------------------------------------------------

 Structure accepted: RESONANCE keyword permits strongly delocalized structure

 --------------------------------------------------------
   Core                      5.99938 ( 99.990% of   6)
   Valence Lewis            17.45203 ( 96.956% of  18)
  ==================       ============================
   Total Lewis              23.45141 ( 97.714% of  24)
  -----------------------------------------------------
   Valence non-Lewis         0.48929 (  2.039% of  24)
   Rydberg non-Lewis         0.05930 (  0.247% of  24)
  ==================       ============================
   Total non-Lewis           0.54859 (  2.286% of  24)
 --------------------------------------------------------


       (Occupancy)   Bond orbital/ Coefficients/ Hybrids
 ---------------------------------------------------------------------------------
     1. (1.99769) BD ( 1) C   1 - O   2  
                ( 35.00%)   0.5916* C   1 s( 36.02%)p 1.77( 63.86%)d 0.00(  0.10%)
                                                  f 0.00(  0.01%)
                                            0.0000  0.5977 -0.0539 -0.0058 -0.0003
                                           -0.7046  0.0559 -0.0002  0.0028 -0.3722
                                            0.0242  0.0009 -0.0017  0.0000  0.0000
                                            0.0000  0.0000  0.0195 -0.0078  0.0005
                                            0.0000  0.0000  0.0000  0.0000  0.0000
                                            0.0000  0.0181 -0.0075 -0.0019 -0.0096
                                            0.0106 -0.0014  0.0000  0.0000  0.0031
                                            0.0008  0.0032 -0.0002  0.0000  0.0000
                                            0.0000  0.0000 -0.0036 -0.0021 -0.0073
                                           -0.0050
                ( 65.00%)   0.8062* O   2 s( 36.63%)p 1.71( 62.54%)d 0.02(  0.79%)
                                                  f 0.00(  0.04%)
                                            0.0000  0.6049 -0.0195  0.0001  0.0019
                                            0.7121 -0.0238 -0.0066  0.0022  0.3428
                                           -0.0123 -0.0033  0.0015  0.0000  0.0000
                                            0.0000  0.0000  0.0602 -0.0034  0.0011
                                            0.0000  0.0000  0.0000  0.0000  0.0000
                                            0.0000  0.0513 -0.0029  0.0013 -0.0404
                                            0.0052  0.0010  0.0000  0.0000 -0.0083
                                           -0.0034 -0.0038 -0.0015  0.0000  0.0000
                                            0.0000  0.0000  0.0040  0.0013  0.0168
                                            0.0032
     2. (1.99771) BD ( 2) C   1 - O   2  
                ( 19.16%)   0.4377* C   1 s(  0.00%)p 1.00( 99.58%)d 0.00(  0.36%)
                                                  f 0.00(  0.06%)
                                            0.0000  0.0000  0.0000  0.0000  0.0000
                                            0.0000  0.0000  0.0000  0.0000  0.0000
                                            0.0000  0.0000  0.0000  0.9961  0.0567
                                            0.0090  0.0163  0.0000  0.0000  0.0000
                                           -0.0540 -0.0147 -0.0007 -0.0207  0.0021
                                            0.0019  0.0000  0.0000  0.0000  0.0000
                                            0.0000  0.0000 -0.0191  0.0038  0.0000
                                            0.0000  0.0000  0.0000  0.0057  0.0039
                                            0.0090 -0.0117  0.0000  0.0000  0.0000
                                            0.0000
                ( 80.84%)   0.8991* O   2 s(  0.00%)p 1.00( 99.56%)d 0.00(  0.40%)
                                                  f 0.00(  0.04%)
                                            0.0000  0.0000  0.0000  0.0000  0.0000
                                            0.0000  0.0000  0.0000  0.0000  0.0000
                                            0.0000  0.0000  0.0000  0.9977  0.0135
                                            0.0004 -0.0010  0.0000  0.0000  0.0000
                                            0.0530  0.0021  0.0014  0.0340  0.0052
                                            0.0036  0.0000  0.0000  0.0000  0.0000
                                            0.0000  0.0000 -0.0096 -0.0007  0.0000
                                            0.0000  0.0000  0.0000  0.0096  0.0006
                                            0.0132 -0.0004  0.0000  0.0000  0.0000
                                            0.0000
     3. (1.99769) BD ( 1) C   1 - O   3  
                ( 35.00%)   0.5916* C   1 s( 36.02%)p 1.77( 63.86%)d 0.00(  0.10%)
                                                  f 0.00(  0.01%)
                                            0.0000  0.5977 -0.0539 -0.0058 -0.0003
                                            0.7046 -0.0559  0.0002 -0.0028 -0.3722
                                            0.0242  0.0009 -0.0017  0.0000  0.0000
                                            0.0000  0.0000 -0.0195  0.0078 -0.0005
                                            0.0000  0.0000  0.0000  0.0000  0.0000
                                            0.0000  0.0181 -0.0075 -0.0019 -0.0096
                                            0.0106 -0.0014  0.0000  0.0000 -0.0031
                                           -0.0008  0.0032 -0.0002  0.0000  0.0000
                                            0.0000  0.0000  0.0036  0.0021 -0.0073
                                           -0.0050
                ( 65.00%)   0.8062* O   3 s( 36.63%)p 1.71( 62.54%)d 0.02(  0.79%)
                                                  f 0.00(  0.04%)
                                            0.0000  0.6049 -0.0195  0.0001  0.0019
                                           -0.7121  0.0238  0.0066 -0.0022  0.3428
                                           -0.0123 -0.0033  0.0015  0.0000  0.0000
                                            0.0000  0.0000 -0.0602  0.0034 -0.0011
                                            0.0000  0.0000  0.0000  0.0000  0.0000
                                            0.0000  0.0513 -0.0029  0.0013 -0.0404
                                            0.0052  0.0010  0.0000  0.0000  0.0083
                                            0.0034 -0.0038 -0.0015  0.0000  0.0000
                                            0.0000  0.0000 -0.0040 -0.0013  0.0168
                                            0.0032
     4. (1.99078) BD ( 1) C   1 - H   4  
                ( 50.26%)   0.7090* C   1 s( 28.97%)p 2.45( 70.89%)d 0.00(  0.13%)
                                                  f 0.00(  0.01%)
                                            0.0000  0.5316  0.0836  0.0077 -0.0001
                                            0.0000  0.0000  0.0000  0.0000  0.8416
                                            0.0196 -0.0147 -0.0065  0.0000  0.0000
                                            0.0000  0.0000  0.0000  0.0000  0.0000
                                            0.0000  0.0000  0.0000  0.0000  0.0000
                                            0.0000 -0.0339  0.0029  0.0053 -0.0120
                                            0.0023  0.0022  0.0000  0.0000  0.0000
                                            0.0000 -0.0061 -0.0046  0.0000  0.0000
                                            0.0000  0.0000  0.0000  0.0000 -0.0057
                                           -0.0032
                ( 49.74%)   0.7053* H   4 s( 99.90%)p 0.00(  0.09%)d 0.00(  0.01%)
                                            0.9994 -0.0115  0.0001  0.0001  0.0000
                                            0.0000  0.0000 -0.0162 -0.0254 -0.0029
                                            0.0000  0.0000  0.0000  0.0000  0.0000
                                            0.0000  0.0000  0.0000  0.0000 -0.0052
                                           -0.0058  0.0028 -0.0035
     5. (1.99979) CR ( 1) C   1           s(100.00%)
                                            1.0000  0.0001  0.0000  0.0000  0.0000
                                            0.0000  0.0000  0.0000  0.0000  0.0000
                                            0.0000  0.0000  0.0000  0.0000  0.0000
                                            0.0000  0.0000  0.0000  0.0000  0.0000
                                            0.0000  0.0000  0.0000  0.0000  0.0000
                                            0.0000  0.0000  0.0000  0.0000  0.0000
                                            0.0000  0.0000  0.0000  0.0000  0.0000
                                            0.0000  0.0000  0.0000  0.0000  0.0000
                                            0.0000  0.0000  0.0000  0.0000  0.0000
                                            0.0000
     6. (1.99979) CR ( 1) O   2           s(100.00%)p 0.00(  0.00%)
                                            1.0000  0.0003  0.0000  0.0000  0.0000
                                           -0.0003  0.0000  0.0000  0.0000  0.0000
                                            0.0000  0.0000  0.0000  0.0000  0.0000
                                            0.0000  0.0000  0.0000  0.0000  0.0000
                                            0.0000  0.0000  0.0000  0.0000  0.0000
                                            0.0000  0.0000  0.0000  0.0000  0.0000
                                            0.0000  0.0000  0.0000  0.0000  0.0000
                                            0.0000  0.0000  0.0000  0.0000  0.0000
                                            0.0000  0.0000  0.0000  0.0000  0.0000
                                            0.0000
     7. (1.99979) CR ( 1) O   3           s(100.00%)p 0.00(  0.00%)
                                            1.0000  0.0003  0.0000  0.0000  0.0000
                                            0.0003  0.0000  0.0000  0.0000  0.0000
                                            0.0000  0.0000  0.0000  0.0000  0.0000
                                            0.0000  0.0000  0.0000  0.0000  0.0000
                                            0.0000  0.0000  0.0000  0.0000  0.0000
                                            0.0000  0.0000  0.0000  0.0000  0.0000
                                            0.0000  0.0000  0.0000  0.0000  0.0000
                                            0.0000  0.0000  0.0000  0.0000  0.0000
                                            0.0000  0.0000  0.0000  0.0000  0.0000
                                            0.0000
     8. (1.98407) LP ( 1) O   2           s( 63.30%)p 0.58( 36.60%)d 0.00(  0.09%)
                                                  f 0.00(  0.00%)
                                           -0.0004  0.7956  0.0104 -0.0002 -0.0008
                                           -0.5501  0.0129 -0.0051 -0.0018 -0.2514
                                            0.0073 -0.0022 -0.0003  0.0000  0.0000
                                            0.0000  0.0000 -0.0208  0.0003 -0.0017
                                            0.0000  0.0000  0.0000  0.0000  0.0000
                                            0.0000 -0.0179  0.0003 -0.0015  0.0135
                                           -0.0011  0.0002  0.0000  0.0000  0.0019
                                            0.0008  0.0010  0.0003  0.0000  0.0000
                                            0.0000  0.0000 -0.0009 -0.0003 -0.0040
                                           -0.0009
     9. (1.91212) LP ( 2) O   2           s(  0.01%)p99.99( 99.72%)d20.51(  0.24%)
                                                  f 2.84(  0.03%)
                                            0.0001  0.0095  0.0049  0.0011 -0.0009
                                            0.4264  0.0051 -0.0004 -0.0015 -0.9029
                                           -0.0051 -0.0007  0.0018  0.0000  0.0000
                                            0.0000  0.0000 -0.0278  0.0023  0.0041
                                            0.0000  0.0000  0.0000  0.0000  0.0000
                                            0.0000  0.0398  0.0008 -0.0027  0.0022
                                            0.0009  0.0005  0.0000  0.0000 -0.0011
                                           -0.0004  0.0019  0.0003  0.0000  0.0000
                                            0.0000  0.0000  0.0177 -0.0003 -0.0037
                                           -0.0003
    10. (1.98407) LP ( 1) O   3           s( 63.30%)p 0.58( 36.60%)d 0.00(  0.09%)
                                                  f 0.00(  0.00%)
                                           -0.0004  0.7956  0.0104 -0.0002 -0.0008
                                            0.5501 -0.0129  0.0051  0.0018 -0.2514
                                            0.0073 -0.0022 -0.0003  0.0000  0.0000
                                            0.0000  0.0000  0.0208 -0.0003  0.0017
                                            0.0000  0.0000  0.0000  0.0000  0.0000
                                            0.0000 -0.0179  0.0003 -0.0015  0.0135
                                           -0.0011  0.0002  0.0000  0.0000 -0.0019
                                           -0.0008  0.0010  0.0003  0.0000  0.0000
                                            0.0000  0.0000  0.0009  0.0003 -0.0040
                                           -0.0009
    11. (1.91212) LP ( 2) O   3           s(  0.01%)p99.99( 99.72%)d20.51(  0.24%)
                                                  f 2.84(  0.03%)
                                            0.0001  0.0095  0.0049  0.0011 -0.0009
                                           -0.4264 -0.0051  0.0004  0.0015 -0.9029
                                           -0.0051 -0.0007  0.0018  0.0000  0.0000
                                            0.0000  0.0000  0.0278 -0.0023 -0.0041
                                            0.0000  0.0000  0.0000  0.0000  0.0000
                                            0.0000  0.0398  0.0008 -0.0027  0.0022
                                            0.0009  0.0005  0.0000  0.0000  0.0011
                                            0.0004  0.0019  0.0003  0.0000  0.0000
                                            0.0000  0.0000 -0.0177  0.0003 -0.0037
                                           -0.0003
    12. (1.67577) LP ( 3) O   3           s(  0.00%)p 1.00( 99.54%)d 0.00(  0.42%)
                                                  f 0.00(  0.04%)
                                            0.0000  0.0000  0.0000  0.0000  0.0000
                                            0.0000  0.0000  0.0000  0.0000  0.0000
                                            0.0000  0.0000  0.0000  0.9975  0.0194
                                            0.0004 -0.0002  0.0000  0.0000  0.0000
                                           -0.0538 -0.0027 -0.0008  0.0356  0.0061
                                            0.0037  0.0000  0.0000  0.0000  0.0000
                                            0.0000  0.0000 -0.0104 -0.0002  0.0000
                                            0.0000  0.0000  0.0000  0.0098  0.0005
                                           -0.0143  0.0010  0.0000  0.0000  0.0000
                                            0.0000
    13. (0.01761) RY*( 1) C   1           s(  0.00%)p 1.00( 97.93%)d 0.02(  2.03%)
                                                  f 0.00(  0.04%)
                                            0.0000  0.0000  0.0000  0.0000  0.0000
                                            0.0822  0.9858  0.0077 -0.0266  0.0000
                                            0.0000  0.0000  0.0000  0.0000  0.0000
                                            0.0000  0.0000  0.1405 -0.0232  0.0063
                                            0.0000  0.0000  0.0000  0.0000  0.0000
                                            0.0000  0.0000  0.0000  0.0000  0.0000
                                            0.0000  0.0000  0.0000  0.0000 -0.0118
                                            0.0033  0.0000  0.0000  0.0000  0.0000
                                            0.0000  0.0000  0.0149 -0.0014  0.0000
                                            0.0000
    14. (0.01169) RY*( 2) C   1           s( 70.57%)p 0.26( 18.16%)d 0.16( 11.22%)
                                                  f 0.00(  0.06%)
                                            0.0000  0.0325  0.8334 -0.0986  0.0199
                                            0.0000  0.0000  0.0000  0.0000 -0.1086
                                           -0.3897 -0.1205  0.0584  0.0000  0.0000
                                            0.0000  0.0000  0.0000  0.0000  0.0000
                                            0.0000  0.0000  0.0000  0.0000  0.0000
                                            0.0000 -0.3342  0.0103 -0.0163 -0.0036
                                            0.0096 -0.0044  0.0000  0.0000  0.0000
                                            0.0000 -0.0071  0.0159  0.0000  0.0000
                                            0.0000  0.0000  0.0000  0.0000 -0.0158
                                           -0.0024
    15. (0.00530) RY*( 3) C   1           s(  0.00%)p 1.00(  0.33%)d99.99( 93.20%)
                                                  f19.32(  6.46%)
                                            0.0000  0.0000  0.0000  0.0000  0.0000
                                            0.0000  0.0000  0.0000  0.0000  0.0000
                                            0.0000  0.0000  0.0000  0.0577  0.0033
                                            0.0005  0.0009  0.0000  0.0000  0.0000
                                            0.9313  0.2541  0.0123 -0.0012  0.0001
                                            0.0001  0.0000  0.0000  0.0000  0.0000
                                            0.0000  0.0000 -0.0011  0.0002  0.0000
                                            0.0000  0.0000  0.0000  0.0003  0.0002
                                           -0.1552  0.2013  0.0000  0.0000  0.0000
                                            0.0000
    16. (0.00257) RY*( 4) C   1           s(  3.79%)p10.44( 39.55%)d14.75( 55.88%)
                                                  f 0.21(  0.78%)
                                            0.0000 -0.0229 -0.0867  0.1221  0.1222
                                            0.0000  0.0000  0.0000  0.0000 -0.0247
                                            0.5404 -0.3140  0.0649  0.0000  0.0000
                                            0.0000  0.0000  0.0000  0.0000  0.0000
                                            0.0000  0.0000  0.0000  0.0000  0.0000
                                            0.0000 -0.7338  0.0362 -0.0586  0.0572
                                            0.0996 -0.0494  0.0000  0.0000  0.0000
                                            0.0000  0.0160  0.0143  0.0000  0.0000
                                            0.0000  0.0000  0.0000  0.0000 -0.0722
                                           -0.0466
    17. (0.00129) RY*( 5) C   1           s(  0.00%)p 1.00( 16.07%)d 4.85( 78.00%)
                                                  f 0.37(  5.93%)
                                            0.0000  0.0000  0.0000  0.0000  0.0000
                                            0.0122 -0.1389  0.3589 -0.1114  0.0000
                                            0.0000  0.0000  0.0000  0.0000  0.0000
                                            0.0000  0.0000  0.8777 -0.0983 -0.0075
                                            0.0000  0.0000  0.0000  0.0000  0.0000
                                            0.0000  0.0000  0.0000  0.0000  0.0000
                                            0.0000  0.0000  0.0000  0.0000 -0.1288
                                            0.0006  0.0000  0.0000  0.0000  0.0000
                                            0.0000  0.0000  0.2065 -0.0088  0.0000
                                            0.0000
    18. (0.00002) RY*( 6) C   1           s( 27.30%)p 1.27( 34.55%)d 1.26( 34.28%)
                                                  f 0.14(  3.87%)
    19. (0.00000) RY*( 7) C   1           s( 97.55%)p 0.00(  0.02%)d 0.02(  2.43%)
                                                  f 0.00(  0.00%)
    20. (0.00000) RY*( 8) C   1           s(  7.39%)p12.04( 88.92%)d 0.45(  3.32%)
                                                  f 0.05(  0.37%)
    21. (0.00000) RY*( 9) C   1           s(  0.08%)p99.99( 97.92%)d23.52(  1.90%)
                                                  f 1.26(  0.10%)
    22. (0.00000) RY*(10) C   1           s(  0.00%)p 1.00(100.00%)d 0.00(  0.00%)
                                                  f 0.00(  0.00%)
    23. (0.00000) RY*(11) C   1           s(  0.00%)p 1.00(100.00%)d 0.00(  0.00%)
                                                  f 0.00(  0.00%)
    24. (0.00000) RY*(12) C   1           s(  0.00%)p 1.00(100.00%)d 0.00(  0.00%)
                                                  f 0.00(  0.00%)
    25. (0.00000) RY*(13) C   1           s( 87.01%)p 0.04(  3.40%)d 0.11(  9.16%)
                                                  f 0.01(  0.44%)
    26. (0.00000) RY*(14) C   1           s(  0.00%)p 1.00(  0.16%)d99.99( 99.79%)
                                                  f 0.37(  0.06%)
    27. (0.00000) RY*(15) C   1           s(  0.00%)p 0.00(  0.01%)d 1.00( 99.99%)
                                                  f 0.00(  0.00%)
    28. (0.00000) RY*(16) C   1           s(  0.00%)p 1.00( 86.17%)d 0.16( 13.83%)
                                                  f 0.00(  0.00%)
    29. (0.00000) RY*(17) C   1           s(  0.00%)p 0.00(  0.00%)d 1.00(100.00%)
    30. (0.00000) RY*(18) C   1           s(  0.00%)p 0.00(  0.00%)d 1.00(100.00%)
                                                  f 0.00(  0.00%)
    31. (0.00000) RY*(19) C   1           s(  0.00%)p 1.00(  0.04%)d99.99( 99.96%)
                                                  f 0.00(  0.00%)
    32. (0.00000) RY*(20) C   1           s(  0.00%)p 0.00(  0.00%)d 1.00(100.00%)
    33. (0.00000) RY*(21) C   1           s(  0.00%)p 0.00(  0.00%)d 1.00(100.00%)
    34. (0.00000) RY*(22) C   1           s(  0.00%)p 1.00( 98.81%)d 0.01(  1.19%)
    35. (0.00000) RY*(23) C   1           s(  0.75%)p 2.72(  2.03%)d99.99( 96.91%)
                                                  f 0.42(  0.31%)
    36. (0.00000) RY*(24) C   1           s(  0.02%)p 1.70(  0.03%)d99.99( 99.94%)
                                                  f 0.26(  0.00%)
    37. (0.00000) RY*(25) C   1           s(  2.82%)p 2.27(  6.39%)d31.91( 89.84%)
                                                  f 0.34(  0.96%)
    38. (0.00000) RY*(26) C   1           s(  0.75%)p 7.07(  5.32%)d99.99( 93.92%)
                                                  f 0.00(  0.00%)
    39. (0.00000) RY*(27) C   1           s(  0.06%)p 0.32(  0.02%)d99.99( 99.91%)
                                                  f 0.25(  0.01%)
    40. (0.00000) RY*(28) C   1           s(  0.00%)p 1.00(  0.04%)d 0.00(  0.00%)
                                                  f99.99( 99.96%)
    41. (0.00000) RY*(29) C   1           s(  0.00%)p 0.00(  0.00%)d 0.00(  0.00%)
                                                  f 1.00(100.00%)
    42. (0.00000) RY*(30) C   1           s(  0.00%)p 1.00(  0.28%)d 5.39(  1.49%)
                                                  f99.99( 98.23%)
    43. (0.00000) RY*(31) C   1           s(  0.00%)p 0.00(  0.00%)d 0.00(  0.00%)
                                                  f 1.00(100.00%)
    44. (0.00000) RY*(32) C   1           s(  0.00%)p 1.00(  0.11%)d 0.30(  0.03%)
                                                  f99.99( 99.85%)
    45. (0.00000) RY*(33) C   1           s(  0.00%)p 1.00(  0.05%)d 3.35(  0.16%)
                                                  f99.99( 99.78%)
    46. (0.00000) RY*(34) C   1           s(  0.00%)p 0.00(  0.00%)d 0.00(  0.00%)
                                                  f 1.00(100.00%)
    47. (0.00000) RY*(35) C   1           s(  0.00%)p 0.00(  0.00%)d 0.00(  0.00%)
                                                  f 1.00(100.00%)
    48. (0.00000) RY*(36) C   1           s(  0.00%)p 0.00(  0.00%)d 1.00(  2.52%)
                                                  f38.68( 97.48%)
    49. (0.00000) RY*(37) C   1           s(  0.00%)p 0.00(  0.00%)d 1.00(  3.96%)
                                                  f24.22( 96.04%)
    50. (0.00000) RY*(38) C   1           s(  0.00%)p 1.00(  0.67%)d 5.32(  3.58%)
                                                  f99.99( 95.74%)
    51. (0.00000) RY*(39) C   1           s(  0.00%)p 0.00(  0.00%)d 0.00(  0.01%)
                                                  f 1.00( 99.99%)
    52. (0.00000) RY*(40) C   1           s(  0.78%)p 4.85(  3.76%)d 0.89(  0.69%)
                                                  f99.99( 94.77%)
    53. (0.00000) RY*(41) C   1           s(  0.14%)p 7.55(  1.06%)d 1.05(  0.15%)
                                                  f99.99( 98.66%)
    54. (0.00405) RY*( 1) O   2           s(  2.99%)p27.05( 80.77%)d 3.99( 11.92%)
                                                  f 1.45(  4.33%)
                                            0.0000  0.0058  0.1395  0.0886  0.0502
                                            0.0060  0.4405  0.0205  0.0432  0.0266
                                           -0.7787  0.0491  0.0420  0.0000  0.0000
                                            0.0000  0.0000 -0.2794 -0.1001  0.0666
                                            0.0000  0.0000  0.0000  0.0000  0.0000
                                            0.0000  0.0850  0.1297 -0.0391 -0.0097
                                           -0.0253 -0.0194  0.0000  0.0000 -0.0217
                                            0.0298  0.0324 -0.0068  0.0000  0.0000
                                            0.0000  0.0000  0.1509 -0.0945 -0.0923
                                            0.0244
    55. (0.00197) RY*( 2) O   2           s(  0.00%)p 1.00( 83.30%)d 0.13( 11.17%)
                                                  f 0.07(  5.53%)
                                            0.0000  0.0000  0.0000  0.0000  0.0000
                                            0.0000  0.0000  0.0000  0.0000  0.0000
                                            0.0000  0.0000  0.0000 -0.0315  0.9055
                                            0.0028  0.1099  0.0000  0.0000  0.0000
                                            0.1254  0.1003 -0.0974  0.2454  0.1268
                                            0.0126  0.0000  0.0000  0.0000  0.0000
                                            0.0000  0.0000 -0.1148  0.0728  0.0000
                                            0.0000  0.0000  0.0000  0.0264 -0.0162
                                            0.1630 -0.0963  0.0000  0.0000  0.0000
                                            0.0000
    56. (0.00040) RY*( 3) O   2           s( 49.16%)p 0.53( 26.29%)d 0.42( 20.43%)
                                                  f 0.08(  4.11%)
                                            0.0000  0.0176  0.6654 -0.1754  0.1336
                                            0.0446 -0.1504  0.2885 -0.0168  0.0263
                                            0.1736  0.1229  0.3299  0.0000  0.0000
                                            0.0000  0.0000 -0.3279  0.0706  0.0382
                                            0.0000  0.0000  0.0000  0.0000  0.0000
                                            0.0000 -0.2074  0.0495  0.0932  0.1467
                                            0.0776  0.0932  0.0000  0.0000 -0.0630
                                            0.0793 -0.0098  0.0457  0.0000  0.0000
                                            0.0000  0.0000  0.0499 -0.0213 -0.1442
                                           -0.0705
    57. (0.00018) RY*( 4) O   2           s(  7.83%)p 4.11( 32.20%)d 6.48( 50.74%)
                                                  f 1.18(  9.23%)
                                            0.0000  0.0192 -0.1094  0.2025 -0.1581
                                            0.0663  0.3557 -0.1823  0.3180  0.0149
                                            0.1442 -0.1846  0.0403  0.0000  0.0000
                                            0.0000  0.0000 -0.1897  0.0628 -0.0380
                                            0.0000  0.0000  0.0000  0.0000  0.0000
                                            0.0000 -0.4595 -0.0067  0.0092  0.5013
                                            0.0390  0.0447  0.0000  0.0000  0.1489
                                           -0.0683 -0.0010  0.0039  0.0000  0.0000
                                            0.0000  0.0000 -0.2234  0.0912 -0.0733
                                            0.0430
    58. (0.00006) RY*( 5) O   2           s(  6.72%)p 3.00( 20.14%)d10.46( 70.29%)
                                                  f 0.42(  2.85%)
    59. (0.00000) RY*( 6) O   2           s(  2.96%)p30.49( 90.22%)d 2.24(  6.63%)
                                                  f 0.06(  0.19%)
    60. (0.00001) RY*( 7) O   2           s(  6.92%)p 2.14( 14.79%)d 8.56( 59.21%)
                                                  f 2.76( 19.08%)
    61. (0.00000) RY*( 8) O   2           s( 24.61%)p 2.97( 72.97%)d 0.05(  1.30%)
                                                  f 0.05(  1.12%)
    62. (0.00000) RY*( 9) O   2           s( 16.27%)p 5.14( 83.64%)d 0.00(  0.06%)
                                                  f 0.00(  0.02%)
    63. (0.00000) RY*(10) O   2           s( 61.23%)p 0.33( 20.20%)d 0.27( 16.46%)
                                                  f 0.03(  2.12%)
    64. (0.00000) RY*(11) O   2           s(  0.00%)p 1.00(100.00%)d 0.00(  0.00%)
                                                  f 0.00(  0.00%)
    65. (0.00000) RY*(12) O   2           s(  0.00%)p 1.00(100.00%)d 0.00(  0.00%)
    66. (0.00000) RY*(13) O   2           s( 92.15%)p 0.03(  2.90%)d 0.05(  4.85%)
                                                  f 0.00(  0.10%)
    67. (0.00000) RY*(14) O   2           s(  3.27%)p 3.33( 10.91%)d26.19( 85.76%)
                                                  f 0.02(  0.06%)
    68. (0.00000) RY*(15) O   2           s(  0.23%)p 2.09(  0.48%)d99.99( 99.28%)
                                                  f 0.06(  0.01%)
    69. (0.00000) RY*(16) O   2           s(  0.00%)p 1.00(  2.13%)d45.86( 97.87%)
                                                  f 0.00(  0.00%)
    70. (0.00000) RY*(17) O   2           s(  0.00%)p 1.00(  1.15%)d85.84( 98.85%)
    71. (0.00000) RY*(18) O   2           s(  0.00%)p 1.00(  1.06%)d93.32( 98.94%)
    72. (0.00000) RY*(19) O   2           s(  0.00%)p 1.00(  6.34%)d14.77( 93.66%)
                                                  f 0.00(  0.00%)
    73. (0.00000) RY*(20) O   2           s(  0.00%)p 1.00(  1.53%)d64.40( 98.47%)
    74. (0.00000) RY*(21) O   2           s(  0.00%)p 1.00(  0.01%)d99.99( 99.98%)
                                                  f 0.06(  0.00%)
    75. (0.00001) RY*(22) O   2           s(  5.65%)p10.25( 57.94%)d 6.39( 36.11%)
                                                  f 0.05(  0.30%)
    76. (0.00000) RY*(23) O   2           s(  0.36%)p 1.81(  0.64%)d99.99( 98.94%)
                                                  f 0.18(  0.06%)
    77. (0.00000) RY*(24) O   2           s(  0.02%)p99.99(  2.19%)d99.99( 94.34%)
                                                  f99.99(  3.45%)
    78. (0.00001) RY*(25) O   2           s( 15.49%)p 5.07( 78.52%)d 0.36(  5.61%)
                                                  f 0.02(  0.37%)
    79. (0.00000) RY*(26) O   2           s(  0.27%)p 2.22(  0.60%)d99.99( 98.91%)
                                                  f 0.81(  0.22%)
    80. (0.00000) RY*(27) O   2           s(  0.34%)p 1.16(  0.39%)d99.99( 99.12%)
                                                  f 0.44(  0.15%)
    81. (0.00000) RY*(28) O   2           s(  0.00%)p 1.00(  1.22%)d 0.13(  0.16%)
                                                  f80.66( 98.61%)
    82. (0.00000) RY*(29) O   2           s(  0.00%)p 1.00(  0.48%)d 0.13(  0.06%)
                                                  f99.99( 99.46%)
    83. (0.00000) RY*(30) O   2           s(  0.72%)p 1.76(  1.27%)d 1.42(  1.02%)
                                                  f99.99( 96.98%)
    84. (0.00000) RY*(31) O   2           s(  0.61%)p 0.88(  0.54%)d 0.23(  0.14%)
                                                  f99.99( 98.71%)
    85. (0.00000) RY*(32) O   2           s(  0.02%)p 7.08(  0.11%)d 4.09(  0.06%)
                                                  f99.99( 99.81%)
    86. (0.00000) RY*(33) O   2           s(  0.10%)p 0.78(  0.08%)d 0.62(  0.06%)
                                                  f99.99( 99.76%)
    87. (0.00000) RY*(34) O   2           s(  0.00%)p 1.00(  0.07%)d 0.12(  0.01%)
                                                  f99.99( 99.92%)
    88. (0.00000) RY*(35) O   2           s(  0.00%)p 1.00(  0.02%)d 0.13(  0.00%)
                                                  f99.99( 99.98%)
    89. (0.00000) RY*(36) O   2           s(  0.00%)p 1.00(  2.33%)d 0.13(  0.31%)
                                                  f41.70( 97.35%)
    90. (0.00000) RY*(37) O   2           s(  0.00%)p 1.00(  0.78%)d 0.13(  0.10%)
                                                  f99.99( 99.11%)
    91. (0.00000) RY*(38) O   2           s(  1.29%)p 1.34(  1.73%)d19.90( 25.63%)
                                                  f55.40( 71.36%)
    92. (0.00000) RY*(39) O   2           s(  0.43%)p 0.79(  0.34%)d 9.03(  3.85%)
                                                  f99.99( 95.39%)
    93. (0.00000) RY*(40) O   2           s(  0.09%)p10.57(  0.91%)d92.44(  7.99%)
                                                  f99.99( 91.01%)
    94. (0.00000) RY*(41) O   2           s(  0.33%)p 1.15(  0.38%)d 0.49(  0.16%)
                                                  f99.99( 99.12%)
    95. (0.00405) RY*( 1) O   3           s(  2.99%)p27.05( 80.77%)d 3.99( 11.92%)
                                                  f 1.45(  4.33%)
                                            0.0000  0.0058  0.1395  0.0886  0.0502
                                           -0.0060 -0.4405 -0.0205 -0.0432  0.0266
                                           -0.7787  0.0491  0.0420  0.0000  0.0000
                                            0.0000  0.0000  0.2794  0.1001 -0.0666
                                            0.0000  0.0000  0.0000  0.0000  0.0000
                                            0.0000  0.0850  0.1297 -0.0391 -0.0097
                                           -0.0253 -0.0194  0.0000  0.0000  0.0217
                                           -0.0298  0.0324 -0.0068  0.0000  0.0000
                                            0.0000  0.0000 -0.1509  0.0945 -0.0923
                                            0.0244
    96. (0.00190) RY*( 2) O   3           s(  0.00%)p 1.00( 83.32%)d 0.13( 11.15%)
                                                  f 0.07(  5.52%)
                                            0.0000  0.0000  0.0000  0.0000  0.0000
                                            0.0000  0.0000  0.0000  0.0000  0.0000
                                            0.0000  0.0000  0.0000 -0.0380  0.9054
                                            0.0028  0.1099  0.0000  0.0000  0.0000
                                           -0.1250 -0.1003  0.0974  0.2452  0.1267
                                            0.0126  0.0000  0.0000  0.0000  0.0000
                                            0.0000  0.0000 -0.1148  0.0728  0.0000
                                            0.0000  0.0000  0.0000  0.0264 -0.0162
                                           -0.1629  0.0963  0.0000  0.0000  0.0000
                                            0.0000
    97. (0.00040) RY*( 3) O   3           s( 49.16%)p 0.53( 26.29%)d 0.42( 20.43%)
                                                  f 0.08(  4.11%)
                                            0.0000  0.0176  0.6654 -0.1754  0.1336
                                           -0.0446  0.1504 -0.2885  0.0168  0.0263
                                            0.1736  0.1229  0.3299  0.0000  0.0000
                                            0.0000  0.0000  0.3279 -0.0706 -0.0382
                                            0.0000  0.0000  0.0000  0.0000  0.0000
                                            0.0000 -0.2074  0.0495  0.0932  0.1467
                                            0.0776  0.0932  0.0000  0.0000  0.0630
                                           -0.0793 -0.0098  0.0457  0.0000  0.0000
                                            0.0000  0.0000 -0.0499  0.0213 -0.1442
                                           -0.0705
    98. (0.00018) RY*( 4) O   3           s(  7.83%)p 4.11( 32.20%)d 6.48( 50.74%)
                                                  f 1.18(  9.23%)
                                            0.0000  0.0192 -0.1094  0.2025 -0.1581
                                           -0.0663 -0.3557  0.1823 -0.3180  0.0149
                                            0.1442 -0.1846  0.0403  0.0000  0.0000
                                            0.0000  0.0000  0.1897 -0.0628  0.0380
                                            0.0000  0.0000  0.0000  0.0000  0.0000
                                            0.0000 -0.4595 -0.0067  0.0092  0.5013
                                            0.0390  0.0447  0.0000  0.0000 -0.1489
                                            0.0683 -0.0010  0.0039  0.0000  0.0000
                                            0.0000  0.0000  0.2234 -0.0912 -0.0733
                                            0.0430
    99. (0.00006) RY*( 5) O   3           s(  6.72%)p 3.00( 20.14%)d10.46( 70.29%)
                                                  f 0.42(  2.85%)
   100. (0.00001) RY*( 6) O   3           s(  6.10%)p 1.10(  6.71%)d14.04( 85.63%)
                                                  f 0.26(  1.56%)
   101. (0.00000) RY*( 7) O   3           s(  1.51%)p64.38( 97.14%)d 0.72(  1.08%)
                                                  f 0.18(  0.27%)
   102. (0.00000) RY*( 8) O   3           s( 13.61%)p 5.78( 78.70%)d 0.02(  0.21%)
                                                  f 0.55(  7.47%)
   103. (0.00000) RY*( 9) O   3           s( 82.93%)p 0.06(  4.61%)d 0.14( 11.95%)
                                                  f 0.01(  0.50%)
   104. (0.00000) RY*(10) O   3           s( 93.69%)p 0.01(  1.12%)d 0.05(  4.40%)
                                                  f 0.01(  0.79%)
   105. (0.00000) RY*(11) O   3           s(  0.00%)p 1.00(100.00%)d 0.00(  0.00%)
                                                  f 0.00(  0.00%)
   106. (0.00000) RY*(12) O   3           s(  0.00%)p 1.00( 99.94%)d 0.00(  0.00%)
                                                  f 0.00(  0.06%)
   107. (0.00001) RY*(13) O   3           s(  2.55%)p27.98( 71.43%)d 7.84( 20.01%)
                                                  f 2.35(  6.00%)
   108. (0.00000) RY*(14) O   3           s(  0.07%)p16.95(  1.24%)d99.99( 98.60%)
                                                  f 1.16(  0.09%)
   109. (0.00000) RY*(15) O   3           s(  0.22%)p 1.77(  0.38%)d99.99( 99.34%)
                                                  f 0.28(  0.06%)
   110. (0.00000) RY*(16) O   3           s(  0.00%)p 1.00(  2.00%)d48.95( 97.93%)
                                                  f 0.04(  0.07%)
   111. (0.00000) RY*(17) O   3           s(  0.00%)p 1.00(  1.06%)d93.29( 98.89%)
                                                  f 0.04(  0.05%)
   112. (0.00000) RY*(18) O   3           s(  0.00%)p 1.00(  0.98%)d99.99( 98.98%)
                                                  f 0.04(  0.04%)
   113. (0.00000) RY*(19) O   3           s(  0.00%)p 1.00(  5.86%)d16.02( 93.89%)
                                                  f 0.04(  0.25%)
   114. (0.00000) RY*(20) O   3           s(  0.00%)p 1.00(  1.42%)d69.54( 98.52%)
                                                  f 0.04(  0.06%)
   115. (0.00000) RY*(21) O   3           s(  0.00%)p 1.00(  0.01%)d99.99( 99.98%)
                                                  f 0.06(  0.00%)
   116. (0.00000) RY*(22) O   3           s(  8.78%)p 9.49( 83.31%)d 0.80(  7.05%)
                                                  f 0.10(  0.86%)
   117. (0.00000) RY*(23) O   3           s(  0.68%)p 1.46(  0.99%)d99.99( 98.04%)
                                                  f 0.42(  0.29%)
   118. (0.00000) RY*(24) O   3           s(  0.42%)p 5.68(  2.40%)d99.99( 96.79%)
                                                  f 0.90(  0.38%)
   119. (0.00000) RY*(25) O   3           s(  4.69%)p17.89( 83.81%)d 2.42( 11.32%)
                                                  f 0.04(  0.18%)
   120. (0.00000) RY*(26) O   3           s(  1.18%)p 1.23(  1.45%)d82.58( 97.14%)
                                                  f 0.20(  0.24%)
   121. (0.00000) RY*(27) O   3           s(  1.03%)p 0.92(  0.94%)d95.06( 97.83%)
                                                  f 0.20(  0.20%)
   122. (0.00000) RY*(28) O   3           s(  0.00%)p 1.00(  1.13%)d 0.14(  0.15%)
                                                  f87.12( 98.71%)
   123. (0.00000) RY*(29) O   3           s(  0.00%)p 1.00(  0.45%)d 0.13(  0.06%)
                                                  f99.99( 99.50%)
   124. (0.00000) RY*(30) O   3           s(  0.76%)p 1.36(  1.02%)d 1.40(  1.06%)
                                                  f99.99( 97.16%)
   125. (0.00000) RY*(31) O   3           s(  0.62%)p 0.74(  0.46%)d 0.21(  0.13%)
                                                  f99.99( 98.79%)
   126. (0.00000) RY*(32) O   3           s(  0.06%)p 1.95(  0.12%)d12.95(  0.76%)
                                                  f99.99( 99.06%)
   127. (0.00000) RY*(33) O   3           s(  0.10%)p 0.75(  0.07%)d 0.64(  0.06%)
                                                  f99.99( 99.76%)
   128. (0.00000) RY*(34) O   3           s(  0.00%)p 1.00(  0.07%)d 0.13(  0.01%)
                                                  f99.99( 99.92%)
   129. (0.00000) RY*(35) O   3           s(  0.00%)p 1.00(  0.02%)d 0.13(  0.00%)
                                                  f99.99( 99.98%)
   130. (0.00000) RY*(36) O   3           s(  0.00%)p 1.00(  3.15%)d 0.00(  0.00%)
                                                  f30.72( 96.85%)
   131. (0.00000) RY*(37) O   3           s(  0.00%)p 1.00(  1.05%)d 0.00(  0.00%)
                                                  f94.28( 98.95%)
   132. (0.00000) RY*(38) O   3           s(  9.28%)p 0.32(  2.97%)d 1.12( 10.41%)
                                                  f 8.34( 77.34%)
   133. (0.00000) RY*(39) O   3           s(  0.26%)p 4.40(  1.15%)d 6.68(  1.75%)
                                                  f99.99( 96.83%)
   134. (0.00000) RY*(40) O   3           s(  4.12%)p 0.34(  1.39%)d 0.26(  1.08%)
                                                  f22.65( 93.41%)
   135. (0.00000) RY*(41) O   3           s(  0.69%)p 0.48(  0.33%)d 1.18(  0.82%)
                                                  f99.99( 98.16%)
   136. (0.00407) RY*( 1) H   4           s( 75.74%)p 0.31( 23.71%)d 0.01(  0.55%)
                                            0.0144  0.8702 -0.0015 -0.0001  0.0000
                                            0.0000  0.0000  0.4629 -0.1221  0.0890
                                            0.0000  0.0000  0.0000  0.0000  0.0000
                                            0.0000  0.0000  0.0000  0.0000  0.0045
                                           -0.0071  0.0737  0.0012
   137. (0.00256) RY*( 2) H   4           s(  0.00%)p 1.00( 94.04%)d 0.06(  5.96%)
                                            0.0000  0.0000  0.0000  0.0000  0.9633
                                           -0.0167 -0.1104  0.0000  0.0000  0.0000
                                            0.0000  0.0000  0.0000 -0.2413 -0.0371
                                            0.0000  0.0000  0.0000  0.0000  0.0000
                                            0.0000  0.0000  0.0000
   138. (0.00058) RY*( 3) H   4           s(  0.00%)p 1.00( 97.56%)d 0.03(  2.44%)
                                            0.0000  0.0000  0.0000  0.0000  0.0000
                                            0.0000  0.0000  0.0000  0.0000  0.0000
                                            0.9702 -0.0568  0.1760  0.0000  0.0000
                                            0.0000  0.0000  0.0311  0.1531  0.0000
                                            0.0000  0.0000  0.0000
   139. (0.00011) RY*( 4) H   4           s(  0.00%)p 0.00(  0.00%)d 1.00(100.00%)
                                            0.0000  0.0000  0.0000  0.0000  0.0000
                                            0.0000  0.0000  0.0000  0.0000  0.0000
                                            0.0000  0.0000  0.0000  0.0000  0.0000
                                            0.9305 -0.3664  0.0000  0.0000  0.0000
                                            0.0000  0.0000  0.0000
   140. (0.00009) RY*( 5) H   4           s( 76.50%)p 0.24( 18.17%)d 0.07(  5.33%)
   141. (0.00003) RY*( 6) H   4           s( 14.65%)p 2.12( 31.13%)d 3.70( 54.23%)
   142. (0.00002) RY*( 7) H   4           s(  0.00%)p 1.00( 88.34%)d 0.13( 11.66%)
   143. (0.00001) RY*( 8) H   4           s(  0.00%)p 1.00(100.00%)d 0.00(  0.00%)
   144. (0.00000) RY*( 9) H   4           s(  3.64%)p24.47( 89.17%)d 1.97(  7.19%)
   145. (0.00000) RY*(10) H   4           s( 81.99%)p 0.00(  0.12%)d 0.22( 17.89%)
   146. (0.00000) RY*(11) H   4           s(  0.00%)p 1.00( 99.99%)d 0.00(  0.01%)
   147. (0.00000) RY*(12) H   4           s(  0.00%)p 1.00(100.00%)
   148. (0.00001) RY*(13) H   4           s(  0.00%)p 1.00(  6.44%)d14.52( 93.56%)
   149. (0.00000) RY*(14) H   4           s(  0.00%)p 1.00( 11.18%)d 7.95( 88.82%)
   150. (0.00000) RY*(15) H   4           s( 26.00%)p 2.51( 65.24%)d 0.34(  8.76%)
   151. (0.00000) RY*(16) H   4           s(  0.00%)p 0.00(  0.00%)d 1.00(100.00%)
   152. (0.00000) RY*(17) H   4           s(  0.00%)p 1.00(  0.09%)d99.99( 99.91%)
   153. (0.00000) RY*(18) H   4           s(  0.00%)p 1.00(  2.36%)d41.46( 97.64%)
   154. (0.00000) RY*(19) H   4           s( 15.36%)p 4.65( 71.38%)d 0.86( 13.26%)
   155. (0.00000) RY*(20) H   4           s(  2.07%)p 0.36(  0.74%)d46.99( 97.19%)
   156. (0.00000) RY*(21) H   4           s(  3.03%)p 0.06(  0.19%)d31.98( 96.78%)
   157. (0.00000) RY*(22) H   4           s(  1.12%)p 0.06(  0.06%)d88.58( 98.82%)
   158. (0.03946) BD*( 1) C   1 - O   2  
                ( 65.00%)   0.8062* C   1 s( 36.02%)p 1.77( 63.86%)d 0.00(  0.10%)
                                                  f 0.00(  0.01%)
                                            0.0000  0.5977 -0.0539 -0.0058 -0.0003
                                           -0.7046  0.0559 -0.0002  0.0028 -0.3722
                                            0.0242  0.0009 -0.0017  0.0000  0.0000
                                            0.0000  0.0000  0.0195 -0.0078  0.0005
                                            0.0000  0.0000  0.0000  0.0000  0.0000
                                            0.0000  0.0181 -0.0075 -0.0019 -0.0096
                                            0.0106 -0.0014  0.0000  0.0000  0.0031
                                            0.0008  0.0032 -0.0002  0.0000  0.0000
                                            0.0000  0.0000 -0.0036 -0.0021 -0.0073
                                           -0.0050
                ( 35.00%)  -0.5916* O   2 s( 36.63%)p 1.71( 62.54%)d 0.02(  0.79%)
                                                  f 0.00(  0.04%)
                                            0.0000  0.6049 -0.0195  0.0001  0.0019
                                            0.7121 -0.0238 -0.0066  0.0022  0.3428
                                           -0.0123 -0.0033  0.0015  0.0000  0.0000
                                            0.0000  0.0000  0.0602 -0.0034  0.0011
                                            0.0000  0.0000  0.0000  0.0000  0.0000
                                            0.0000  0.0513 -0.0029  0.0013 -0.0404
                                            0.0052  0.0010  0.0000  0.0000 -0.0083
                                           -0.0034 -0.0038 -0.0015  0.0000  0.0000
                                            0.0000  0.0000  0.0040  0.0013  0.0168
                                            0.0032
   159. (0.31666) BD*( 2) C   1 - O   2  
                ( 80.84%)   0.8991* C   1 s(  0.00%)p 1.00( 99.58%)d 0.00(  0.36%)
                                                  f 0.00(  0.06%)
                                            0.0000  0.0000  0.0000  0.0000  0.0000
                                            0.0000  0.0000  0.0000  0.0000  0.0000
                                            0.0000  0.0000  0.0000  0.9961  0.0567
                                            0.0090  0.0163  0.0000  0.0000  0.0000
                                           -0.0540 -0.0147 -0.0007 -0.0207  0.0021
                                            0.0019  0.0000  0.0000  0.0000  0.0000
                                            0.0000  0.0000 -0.0191  0.0038  0.0000
                                            0.0000  0.0000  0.0000  0.0057  0.0039
[...]
                                            0.0000  0.0000  0.0000  0.0000  0.0000
                                            0.0000  0.0000  0.0000  0.0000  0.0052
                                            0.0058 -0.0028  0.0035


 NHO Directionality and "Bond Bending" (deviations from line of nuclear centers)

         [Thresholds for printing:  angular deviation  >  1.0 degree]
                                    hybrid p-character > 25.0%
                                    orbital occupancy  >  0.10e

                                Line of Centers        Hybrid 1              Hybrid 2
                                ---------------  -------------------   ------------------
                NBO               Theta   Phi    Theta   Phi    Dev    Theta   Phi    Dev
 ========================================================================================
     1. BD (   1) C   1 - O   2    90.0  204.9    90.0  208.4   3.5      --     --    --
     2. BD (   2) C   1 - O   2    90.0  204.9     0.0    0.0  90.0      0.0    0.0  90.0
     3. BD (   1) C   1 - O   3    90.0  335.1    90.0  331.6   3.5      --     --    --
     8. LP (   1) O   2             --     --     90.0  204.4   --       --     --    --
     9. LP (   2) O   2             --     --     90.0  295.3   --       --     --    --
    10. LP (   1) O   3             --     --     90.0  335.6   --       --     --    --
    11. LP (   2) O   3             --     --     90.0  244.7   --       --     --    --
    12. LP (   3) O   3             --     --      0.0    0.0   --       --     --    --
   159. BD*(   2) C   1 - O   2    90.0  204.9     0.0    0.0  90.0      0.0    0.0  90.0


 Second Order Perturbation Theory Analysis of Fock Matrix in NBO Basis

     Threshold for printing:   0.50 kcal/mol
                                                                              E(2)  E(j)-E(i) F(i,j)
         Donor NBO (i)                     Acceptor NBO (j)                 kcal/mol   a.u.    a.u. 
 ===================================================================================================

 within unit  1
   1. BD (   1) C   1 - O   2        / 13. RY*(   1) C   1                    0.97    3.00    0.048
   1. BD (   1) C   1 - O   2        / 95. RY*(   1) O   3                    0.73    2.75    0.040
   1. BD (   1) C   1 - O   2        /160. BD*(   1) C   1 - O   3            0.88    2.10    0.039
   2. BD (   2) C   1 - O   2        / 96. RY*(   2) O   3                    1.98    1.71    0.052
   2. BD (   2) C   1 - O   2        /159. BD*(   2) C   1 - O   2            1.19    0.66    0.027
   3. BD (   1) C   1 - O   3        / 13. RY*(   1) C   1                    0.97    3.00    0.048
   3. BD (   1) C   1 - O   3        / 54. RY*(   1) O   2                    0.73    2.75    0.040
   3. BD (   1) C   1 - O   3        /158. BD*(   1) C   1 - O   2            0.88    2.10    0.039
   4. BD (   1) C   1 - H   4        / 14. RY*(   2) C   1                    1.25    2.61    0.051
   4. BD (   1) C   1 - H   4        / 54. RY*(   1) O   2                    4.02    2.19    0.084
   4. BD (   1) C   1 - H   4        / 62. RY*(   9) O   2                    0.66    1.94    0.032
   4. BD (   1) C   1 - H   4        / 95. RY*(   1) O   3                    4.02    2.19    0.084
   4. BD (   1) C   1 - H   4        /102. RY*(   8) O   3                    0.89    2.15    0.039
   4. BD (   1) C   1 - H   4        /158. BD*(   1) C   1 - O   2            0.62    1.54    0.028
   4. BD (   1) C   1 - H   4        /160. BD*(   1) C   1 - O   3            0.62    1.54    0.028
   4. BD (   1) C   1 - H   4        /161. BD*(   1) C   1 - H   4            0.56    1.23    0.024
   6. CR (   1) O   2                / 13. RY*(   1) C   1                    3.80   21.98    0.259
   6. CR (   1) O   2                / 14. RY*(   2) C   1                    1.46   22.16    0.161
   6. CR (   1) O   2                /160. BD*(   1) C   1 - O   3            0.95   21.09    0.128
   7. CR (   1) O   3                / 13. RY*(   1) C   1                    3.80   21.98    0.259
   7. CR (   1) O   3                / 14. RY*(   2) C   1                    1.46   22.16    0.161
   7. CR (   1) O   3                /158. BD*(   1) C   1 - O   2            0.95   21.09    0.128
   8. LP (   1) O   2                / 13. RY*(   1) C   1                   11.78    2.70    0.159
   8. LP (   1) O   2                / 14. RY*(   2) C   1                    5.59    2.88    0.113
   8. LP (   1) O   2                / 16. RY*(   4) C   1                    0.87    3.86    0.052
   8. LP (   1) O   2                /137. RY*(   2) H   4                    0.74    1.82    0.033
   8. LP (   1) O   2                /160. BD*(   1) C   1 - O   3            2.67    1.80    0.062
   8. LP (   1) O   2                /161. BD*(   1) C   1 - H   4            0.92    1.50    0.034
   9. LP (   2) O   2                / 14. RY*(   2) C   1                    1.70    2.32    0.057
   9. LP (   2) O   2                / 16. RY*(   4) C   1                    0.97    3.30    0.052
   9. LP (   2) O   2                / 17. RY*(   5) C   1                    0.95    3.93    0.056
   9. LP (   2) O   2                / 54. RY*(   1) O   2                    0.50    1.90    0.028
   9. LP (   2) O   2                /160. BD*(   1) C   1 - O   3           25.59    1.25    0.162
   9. LP (   2) O   2                /161. BD*(   1) C   1 - H   4           26.24    0.94    0.141
  10. LP (   1) O   3                / 13. RY*(   1) C   1                   11.78    2.70    0.159
  10. LP (   1) O   3                / 14. RY*(   2) C   1                    5.59    2.88    0.113
  10. LP (   1) O   3                / 16. RY*(   4) C   1                    0.87    3.86    0.052
  10. LP (   1) O   3                /137. RY*(   2) H   4                    0.74    1.82    0.033
  10. LP (   1) O   3                /158. BD*(   1) C   1 - O   2            2.67    1.80    0.062
  10. LP (   1) O   3                /161. BD*(   1) C   1 - H   4            0.92    1.50    0.034
  11. LP (   2) O   3                / 14. RY*(   2) C   1                    1.70    2.32    0.057
  11. LP (   2) O   3                / 16. RY*(   4) C   1                    0.97    3.30    0.052
  11. LP (   2) O   3                / 17. RY*(   5) C   1                    0.95    3.93    0.056
  11. LP (   2) O   3                / 95. RY*(   1) O   3                    0.50    1.90    0.028
  11. LP (   2) O   3                /158. BD*(   1) C   1 - O   2           25.59    1.25    0.162
  11. LP (   2) O   3                /161. BD*(   1) C   1 - H   4           26.24    0.94    0.141
  12. LP (   3) O   3                / 15. RY*(   3) C   1                    3.08    3.09    0.095
  12. LP (   3) O   3                / 23. RY*(  11) C   1                    0.52    0.65    0.018
  12. LP (   3) O   3                / 29. RY*(  17) C   1                    0.81    2.34    0.043
  12. LP (   3) O   3                /159. BD*(   2) C   1 - O   2          169.56    0.51    0.264
 159. BD*(   2) C   1 - O   2        / 15. RY*(   3) C   1                    2.25    2.58    0.169
 159. BD*(   2) C   1 - O   2        / 22. RY*(  10) C   1                    0.70    1.26    0.066
 159. BD*(   2) C   1 - O   2        / 23. RY*(  11) C   1                    1.59    0.13    0.033
 159. BD*(   2) C   1 - O   2        / 29. RY*(  17) C   1                    0.92    1.83    0.092
 159. BD*(   2) C   1 - O   2        / 96. RY*(   2) O   3                    0.67    1.05    0.060
 159. BD*(   2) C   1 - O   2        /138. RY*(   3) H   4                    1.49    0.57    0.065


 Natural Bond Orbitals (Summary):

                                                            Principal Delocalizations
           NBO                        Occupancy    Energy   (geminal,vicinal,remote)
 ====================================================================================
 Molecular unit  1  (CHO2)
     1. BD (   1) C   1 - O   2          1.99769    -1.04338  13(g),160(g),95(v)
     2. BD (   2) C   1 - O   2          1.99771    -0.27578  96(v),159(g)
     3. BD (   1) C   1 - O   3          1.99769    -1.04338  13(g),158(g),54(v)
     4. BD (   1) C   1 - H   4          1.99078    -0.48428  54(v),95(v),14(g),102(v)
                                                    62(v),158(g),160(g),161(g)
     5. CR (   1) C   1                  1.99979   -11.00747   
     6. CR (   1) O   2                  1.99979   -20.03269  13(v),14(v),160(v)
     7. CR (   1) O   3                  1.99979   -20.03269  13(v),14(v),158(v)
     8. LP (   1) O   2                  1.98407    -0.74954  13(v),14(v),160(v),161(v)
                                                    16(v),137(r)
     9. LP (   2) O   2                  1.91212    -0.19402  161(v),160(v),14(v),16(v)
                                                    17(v),54(g)
    10. LP (   1) O   3                  1.98407    -0.74954  13(v),14(v),158(v),161(v)
                                                    16(v),137(r)
    11. LP (   2) O   3                  1.91212    -0.19402  161(v),158(v),14(v),16(v)
                                                    17(v),95(g)
    12. LP (   3) O   3                  1.67577    -0.12793  159(v),15(v),29(v),23(v)
    13. RY*(   1) C   1                  0.01761     1.95178   
    14. RY*(   2) C   1                  0.01169     2.12884   
    15. RY*(   3) C   1                  0.00530     2.96106   
    16. RY*(   4) C   1                  0.00257     3.11050   
    17. RY*(   5) C   1                  0.00129     3.73476   
    18. RY*(   6) C   1                  0.00002     4.85088   
    19. RY*(   7) C   1                  0.00000     2.10385   
    20. RY*(   8) C   1                  0.00000     1.52068   
    21. RY*(   9) C   1                  0.00000     2.04901   
    22. RY*(  10) C   1                  0.00000     1.63988   
    23. RY*(  11) C   1                  0.00000     0.51932   
    24. RY*(  12) C   1                  0.00000     1.15422   
    25. RY*(  13) C   1                  0.00000     1.43315   
    26. RY*(  14) C   1                  0.00000     1.80211   
    27. RY*(  15) C   1                  0.00000     3.59770   
    28. RY*(  16) C   1                  0.00000     1.71685   
    29. RY*(  17) C   1                  0.00000     2.21485   
    30. RY*(  18) C   1                  0.00000     3.00761   
    31. RY*(  19) C   1                  0.00000     3.39396   
    32. RY*(  20) C   1                  0.00000     1.42448   
    33. RY*(  21) C   1                  0.00000     2.60636   
    34. RY*(  22) C   1                  0.00000     1.76772   
    35. RY*(  23) C   1                  0.00000     1.63625   
    36. RY*(  24) C   1                  0.00000     3.58506   
    37. RY*(  25) C   1                  0.00000     3.10508   
    38. RY*(  26) C   1                  0.00000     1.97102   
    39. RY*(  27) C   1                  0.00000     3.49972   
    40. RY*(  28) C   1                  0.00000     3.38599   
    41. RY*(  29) C   1                  0.00000     2.93059   
    42. RY*(  30) C   1                  0.00000     3.57543   
    43. RY*(  31) C   1                  0.00000     3.80488   
    44. RY*(  32) C   1                  0.00000     3.48835   
    45. RY*(  33) C   1                  0.00000     2.99954   
    46. RY*(  34) C   1                  0.00000     3.60515   
    47. RY*(  35) C   1                  0.00000     3.14529   
    48. RY*(  36) C   1                  0.00000     3.55175   
    49. RY*(  37) C   1                  0.00000     3.00732   
    50. RY*(  38) C   1                  0.00000     4.16216   
    51. RY*(  39) C   1                  0.00000     4.27601   
    52. RY*(  40) C   1                  0.00000     4.29958   
    53. RY*(  41) C   1                  0.00000     6.84650   
    54. RY*(   1) O   2                  0.00405     1.70815   
    55. RY*(   2) O   2                  0.00197     1.43776   
    56. RY*(   3) O   2                  0.00040     2.79037   
    57. RY*(   4) O   2                  0.00018     2.53142   
    58. RY*(   5) O   2                  0.00006     1.93871   
    59. RY*(   6) O   2                  0.00000     1.20631   
    60. RY*(   7) O   2                  0.00001     2.28588   
    61. RY*(   8) O   2                  0.00000     4.18290   
    62. RY*(   9) O   2                  0.00000     1.45304   
    63. RY*(  10) O   2                  0.00000     2.88164   
    64. RY*(  11) O   2                  0.00000     4.78925   
    65. RY*(  12) O   2                  0.00000     0.70184   
    66. RY*(  13) O   2                  0.00000     6.37101   
    67. RY*(  14) O   2                  0.00000     4.15476   
    68. RY*(  15) O   2                  0.00000     5.21595   
    69. RY*(  16) O   2                  0.00000     1.84473   
    70. RY*(  17) O   2                  0.00000     4.07972   
    71. RY*(  18) O   2                  0.00000     4.98441   
    72. RY*(  19) O   2                  0.00000     1.69962   
    73. RY*(  20) O   2                  0.00000     3.99010   
    74. RY*(  21) O   2                  0.00000     5.09764   
    75. RY*(  22) O   2                  0.00001     3.92537   
    76. RY*(  23) O   2                  0.00000     4.46927   
    77. RY*(  24) O   2                  0.00000     5.48733   
    78. RY*(  25) O   2                  0.00001     4.48321   
    79. RY*(  26) O   2                  0.00000     4.55977   
    80. RY*(  27) O   2                  0.00000     5.36393   
    81. RY*(  28) O   2                  0.00000     3.13391   
    82. RY*(  29) O   2                  0.00000     6.42201   
    83. RY*(  30) O   2                  0.00000     3.64873   
    84. RY*(  31) O   2                  0.00000     6.60643   
    85. RY*(  32) O   2                  0.00000     3.17614   
    86. RY*(  33) O   2                  0.00000     6.36821   
    87. RY*(  34) O   2                  0.00000     3.17963   
    88. RY*(  35) O   2                  0.00000     6.58011   
    89. RY*(  36) O   2                  0.00000     3.14502   
    90. RY*(  37) O   2                  0.00000     6.53796   
    91. RY*(  38) O   2                  0.00000     3.18964   
    92. RY*(  39) O   2                  0.00000     6.79255   
    93. RY*(  40) O   2                  0.00000     3.91877   
    94. RY*(  41) O   2                  0.00000     6.76369   
    95. RY*(   1) O   3                  0.00405     1.70815   
    96. RY*(   2) O   3                  0.00190     1.43785   
    97. RY*(   3) O   3                  0.00040     2.79037   
    98. RY*(   4) O   3                  0.00018     2.53142   
    99. RY*(   5) O   3                  0.00006     1.93871   
   100. RY*(   6) O   3                  0.00001     1.99843   
   101. RY*(   7) O   3                  0.00000     3.94254   
   102. RY*(   8) O   3                  0.00000     1.66217   
   103. RY*(   9) O   3                  0.00000     2.16503   
   104. RY*(  10) O   3                  0.00000     6.72850   
   105. RY*(  11) O   3                  0.00000     4.78925   
   106. RY*(  12) O   3                  0.00000     0.70720   
   107. RY*(  13) O   3                  0.00001     3.18582   
   108. RY*(  14) O   3                  0.00000     4.83220   
   109. RY*(  15) O   3                  0.00000     5.20046   
   110. RY*(  16) O   3                  0.00000     1.84583   
   111. RY*(  17) O   3                  0.00000     4.07553   
   112. RY*(  18) O   3                  0.00000     4.98439   
   113. RY*(  19) O   3                  0.00000     1.70636   
   114. RY*(  20) O   3                  0.00000     3.98117   
   115. RY*(  21) O   3                  0.00000     5.09773   
   116. RY*(  22) O   3                  0.00000     4.69748   
   117. RY*(  23) O   3                  0.00000     4.28134   
   118. RY*(  24) O   3                  0.00000     5.51021   
   119. RY*(  25) O   3                  0.00000     1.87499   
   120. RY*(  26) O   3                  0.00000     4.43762   
   121. RY*(  27) O   3                  0.00000     5.36203   
   122. RY*(  28) O   3                  0.00000     3.12826   
   123. RY*(  29) O   3                  0.00000     6.41823   
   124. RY*(  30) O   3                  0.00000     3.64215   
   125. RY*(  31) O   3                  0.00000     6.60664   
   126. RY*(  32) O   3                  0.00000     3.19719   
   127. RY*(  33) O   3                  0.00000     6.36876   
   128. RY*(  34) O   3                  0.00000     3.17964   
   129. RY*(  35) O   3                  0.00000     6.58007   
   130. RY*(  36) O   3                  0.00000     3.14817   
   131. RY*(  37) O   3                  0.00000     6.54413   
   132. RY*(  38) O   3                  0.00000     3.16951   
   133. RY*(  39) O   3                  0.00000     6.76129   
   134. RY*(  40) O   3                  0.00000     4.12474   
   135. RY*(  41) O   3                  0.00000     6.75541   
   136. RY*(   1) H   4                  0.00407     0.70468   
   137. RY*(   2) H   4                  0.00256     1.06711   
   138. RY*(   3) H   4                  0.00058     0.95077   
   139. RY*(   4) H   4                  0.00011     1.28730   
   140. RY*(   5) H   4                  0.00009     2.85555   
   141. RY*(   6) H   4                  0.00003     4.31743   
   142. RY*(   7) H   4                  0.00002     3.30116   
   143. RY*(   8) H   4                  0.00001     3.61930   
   144. RY*(   9) H   4                  0.00000     3.41751   
   145. RY*(  10) H   4                  0.00000     0.87081   
   146. RY*(  11) H   4                  0.00000     3.37330   
   147. RY*(  12) H   4                  0.00000     2.80592   
   148. RY*(  13) H   4                  0.00001     2.46281   
   149. RY*(  14) H   4                  0.00000     4.12690   
   150. RY*(  15) H   4                  0.00000     1.61082   
   151. RY*(  16) H   4                  0.00000     4.21073   
   152. RY*(  17) H   4                  0.00000     2.37453   
   153. RY*(  18) H   4                  0.00000     3.74830   
   154. RY*(  19) H   4                  0.00000     3.49766   
   155. RY*(  20) H   4                  0.00000     4.27358   
   156. RY*(  21) H   4                  0.00000     2.94287   
   157. RY*(  22) H   4                  0.00000     3.98488   
   158. BD*(   1) C   1 - O   2          0.03946     1.05453   
   159. BD*(   2) C   1 - O   2          0.31666     0.38473  15(g),23(g),138(v),29(g)
                                                    22(g),96(v)
   160. BD*(   1) C   1 - O   3          0.03946     1.05453   
   161. BD*(   1) C   1 - H   4          0.09370     0.75072   
       -------------------------------
              Total Lewis   23.45141  ( 97.7142%)
        Valence non-Lewis    0.48929  (  2.0387%)
        Rydberg non-Lewis    0.05930  (  0.2471%)
       -------------------------------
            Total unit  1   24.00000  (100.0000%)
           Charge unit  1   -1.00000
 1|1|UNPC-DESKTOP-F4NP0R6|SP|RMP2-FC|Aug-CC-pVTZ|C1H1O2(1-)|GARRETT|24-
 Jul-2018|0||# MP2 Aug-cc-pvTZ pop=NBO||Formate||-1,1|C|O,1,1.25826949|
 O,1,1.25826949,2,130.18114751|H,1,1.12525117,2,114.90939537,3,180.,0||
 Version=EM64W-G16RevB.01|State=1-A'|HF=-188.2734183|MP2=-188.9312156|R
 MSD=7.293e-009|PG=CS [SG(C1H1O2)]||@


 THE REASON MAN'S BEST FRIEND IS A DOG IS BECAUSE
 HE WAGS HIS TAIL INSTEAD OF HIS TONGUE.
 Job cpu time:       0 days  0 hours  0 minutes 35.0 seconds.
 Elapsed time:       0 days  0 hours  0 minutes 28.8 seconds.
 File lengths (MBytes):  RWF=     16 Int=      0 D2E=      0 Chk=      3 Scr=      1
 Normal termination of Gaussian 16 at Tue Jul 24 13:27:28 2018.
