 Entering Link 1 = C:\G16W\l1.exe PID=     24168.
  
 Copyright (c) 1988-2017, Gaussian, Inc.  All Rights Reserved.
  
 This is part of the Gaussian(R) 16 program.  It is based on
 the Gaussian(R) 09 system (copyright 2009, Gaussian, Inc.),
 the Gaussian(R) 03 system (copyright 2003, Gaussian, Inc.),
 the Gaussian(R) 98 system (copyright 1998, Gaussian, Inc.),
 the Gaussian(R) 94 system (copyright 1995, Gaussian, Inc.),
 the Gaussian 92(TM) system (copyright 1992, Gaussian, Inc.),
 the Gaussian 90(TM) system (copyright 1990, Gaussian, Inc.),
 the Gaussian 88(TM) system (copyright 1988, Gaussian, Inc.),
 the Gaussian 86(TM) system (copyright 1986, Carnegie Mellon
 University), and the Gaussian 82(TM) system (copyright 1983,
 Carnegie Mellon University). Gaussian is a federally registered
 trademark of Gaussian, Inc.
  
 This software contains proprietary and confidential information,
 including trade secrets, belonging to Gaussian, Inc.
  
 This software is provided under written license and may be
 used, copied, transmitted, or stored only in accord with that
 written license.
  
 The following legend is applicable only to US Government
 contracts under FAR:
  
                    RESTRICTED RIGHTS LEGEND
  
 Use, reproduction and disclosure by the US Government is
 subject to restrictions as set forth in subparagraphs (a)
 and (c) of the Commercial Computer Software - Restricted
 Rights clause in FAR 52.227-19.
  
 Gaussian, Inc.
 340 Quinnipiac St., Bldg. 40, Wallingford CT 06492
  
  
 ---------------------------------------------------------------
 Warning -- This program may not be used in any manner that
 competes with the business of Gaussian, Inc. or will provide
 assistance to any competitor of Gaussian, Inc.  The licensee
 of this program is prohibited from giving any competitor of
 Gaussian, Inc. access to this program.  By using this program,
 the user acknowledges that Gaussian, Inc. is engaged in the
 business of creating and licensing software in the field of
 computational chemistry and represents and warrants to the
 licensee that it is not a competitor of Gaussian, Inc. and that
 it will not use this program in any manner prohibited above.
 ---------------------------------------------------------------
  

 Cite this work as:
 Gaussian 16, Revision B.01,
 M. J. Frisch, G. W. Trucks, H. B. Schlegel, G. E. Scuseria, 
 M. A. Robb, J. R. Cheeseman, G. Scalmani, V. Barone, 
 G. A. Petersson, H. Nakatsuji, X. Li, M. Caricato, A. V. Marenich, 
 J. Bloino, B. G. Janesko, R. Gomperts, B. Mennucci, H. P. Hratchian, 
 J. V. Ortiz, A. F. Izmaylov, J. L. Sonnenberg, D. Williams-Young, 
 F. Ding, F. Lipparini, F. Egidi, J. Goings, B. Peng, A. Petrone, 
 T. Henderson, D. Ranasinghe, V. G. Zakrzewski, J. Gao, N. Rega, 
 G. Zheng, W. Liang, M. Hada, M. Ehara, K. Toyota, R. Fukuda, 
 J. Hasegawa, M. Ishida, T. Nakajima, Y. Honda, O. Kitao, H. Nakai, 
 T. Vreven, K. Throssell, J. A. Montgomery, Jr., J. E. Peralta, 
 F. Ogliaro, M. J. Bearpark, J. J. Heyd, E. N. Brothers, K. N. Kudin, 
 V. N. Staroverov, T. A. Keith, R. Kobayashi, J. Normand, 
 K. Raghavachari, A. P. Rendell, J. C. Burant, S. S. Iyengar, 
 J. Tomasi, M. Cossi, J. M. Millam, M. Klene, C. Adamo, R. Cammi, 
 J. W. Ochterski, R. L. Martin, K. Morokuma, O. Farkas, 
 J. B. Foresman, and D. J. Fox, Gaussian, Inc., Wallingford CT, 2016.
 
 ******************************************
 Gaussian 16:  EM64W-G16RevB.01 16-Dec-2017
                23-Jul-2018 
 ******************************************
 %nproc=2
 Will use up to    2 processors via shared memory.
 %mem=4gb
 -----------------------------------------------
 # MP2 Aug-cc-pvTZ opt=(noeigen,calcfc,z-matrix)
 -----------------------------------------------
 1/10=4,11=1,18=40,38=1/1,3;
 2/12=2,17=6,18=5,29=3,40=1/2;
 3/5=16,6=1,7=10,11=9,25=1,30=1,71=2,140=1/1,2,3;
 4//1;
 5/5=2,38=5/2;
 8/6=3,8=1,10=1,19=11,30=-1/1;
 9/15=3,16=-3/6;
 11/6=1,8=1,15=11,17=12,24=-1,27=1,28=-2,29=300,32=6,42=3/1,2,10;
 10/6=2,21=1/2;
 8/6=4,8=1,10=1,19=11,30=-1/11,4;
 10/5=1,20=4/2;
 11/12=2,14=11,16=1,17=2,28=-2,42=3,76=2/2,10,12;
 6/7=2,8=2,9=2,10=2/1;
 7/10=1,12=2,25=1,44=2/1,2,3,16;
 1/10=4,11=1,18=40/3(2);
 2/29=3/2;
 99//99;
 2/29=3/2;
 3/5=16,6=1,7=10,11=9,25=1,30=1,71=1/1,2,3;
 4/5=5,16=3,69=1/1;
 5/5=2,38=5/2;
 8/6=4,10=1/1;
 9/15=2,16=-3/6;
 10/5=1/2;
 7/12=2/1,2,3,16;
 1/11=1,18=40/3(-8);
 2/29=3/2;
 6/7=2,8=2,9=2,10=2/1;
 99/9=10/99;
 -------
 Formate
 -------
 Symbolic Z-matrix:
 Charge = -1 Multiplicity = 1
 C
 O                    1    R
 O                    1    R1       2    A1
 H                    1    R2       2    A2       3     180.     0
       Variables:
  R1                    1.25827                  
  R2                    1.12525                  
  A1                  130.18115                  
  A2                  114.9094                   
       Constants:
  R                     1.15                     
 

 GradGradGradGradGradGradGradGradGradGradGradGradGradGradGradGradGradGrad
 Berny optimization.
 Initialization pass.
                       ----------------------------
                       !    Initial Parameters    !
                       ! (Angstroms and Degrees)  !
 ----------------------                            ----------------------
 !      Name          Value   Derivative information (Atomic Units)     !
 ------------------------------------------------------------------------
 !       R1          1.2583   calculate D2E/DX2 analytically            !
 !       R2          1.1253   calculate D2E/DX2 analytically            !
 !       A1        130.1811   calculate D2E/DX2 analytically            !
 !       A2        114.9094   calculate D2E/DX2 analytically            !
 !        R          1.15     frozen, calculate D2E/DX2 analytically    !
 ------------------------------------------------------------------------
 Trust Radius=3.00D-01 FncErr=1.00D-07 GrdErr=1.00D-07 EigMax=2.50D+02 EigMin=1.00D-04
 Number of steps in this run=     20 maximum allowed number of steps=    100.
 GradGradGradGradGradGradGradGradGradGradGradGradGradGradGradGradGradGrad

 ---------------------------------------------------------------------------------------------------
                            Z-MATRIX (ANGSTROMS AND DEGREES)
   CD    Cent   Atom    N1       Length/X        N2       Alpha/Y        N3        Beta/Z          J
 ---------------------------------------------------------------------------------------------------
      1      1  C 
      2      2  O        1   1.150000(     1)
      3      3  O        1   1.258269(     2)      2  130.181(     4)
      4      4  H        1   1.125251(     3)      2  114.909(     5)      3  180.000(     6)      0
 ---------------------------------------------------------------------------------------------------
                         Z-Matrix orientation:                         
 ---------------------------------------------------------------------
 Center     Atomic      Atomic             Coordinates (Angstroms)
 Number     Number       Type             X           Y           Z
 ---------------------------------------------------------------------
      1          6           0        0.000000    0.000000    0.000000
      2          8           0        0.000000    0.000000    1.150000
      3          8           0        0.961328    0.000000   -0.811843
      4          1           0       -1.020575    0.000000   -0.473938
 ---------------------------------------------------------------------
                    Distance matrix (angstroms):
                    1          2          3          4
     1  C    0.000000
     2  O    1.150000   0.000000
     3  O    1.258269   2.184716   0.000000
     4  H    1.125251   1.918006   2.010502   0.000000
 Stoichiometry    CHO2(1-)
 Framework group  CS[SG(CHO2)]
 Deg. of freedom     5
 Full point group                 CS      NOp   2
 Largest Abelian subgroup         CS      NOp   2
 Largest concise Abelian subgroup C1      NOp   1
                         Standard orientation:                         
 ---------------------------------------------------------------------
 Center     Atomic      Atomic             Coordinates (Angstroms)
 Number     Number       Type             X           Y           Z
 ---------------------------------------------------------------------
      1          6           0        0.000000    0.305799    0.000000
      2          8           0        1.090595   -0.059035    0.000000
      3          8           0       -1.074884   -0.348316    0.000000
      4          1           0       -0.125682    1.424009    0.000000
 ---------------------------------------------------------------------
 Rotational constants (GHZ):         114.1626172          13.2259808          11.8528079
 Standard basis: Aug-CC-pVTZ (5D, 7F)
 There are   129 symmetry adapted cartesian basis functions of A'  symmetry.
 There are    61 symmetry adapted cartesian basis functions of A"  symmetry.
 There are   106 symmetry adapted basis functions of A'  symmetry.
 There are    55 symmetry adapted basis functions of A"  symmetry.
   161 basis functions,   243 primitive gaussians,   190 cartesian basis functions
    12 alpha electrons       12 beta electrons
       nuclear repulsion energy        64.9106961615 Hartrees.
 NAtoms=    4 NActive=    4 NUniq=    4 SFac= 1.00D+00 NAtFMM=   60 NAOKFM=F Big=F
 Integral buffers will be    131072 words long.
 Raffenetti 1 integral format.
 Two-electron integral symmetry is turned on.
 One-electron integrals computed using PRISM.
 NBasis=   161 RedAO= T EigKep=  9.40D-05  NBF=   106    55
 NBsUse=   161 1.00D-06 EigRej= -1.00D+00 NBFU=   106    55
 ExpMin= 2.53D-02 ExpMax= 1.53D+04 ExpMxC= 5.22D+02 IAcc=3 IRadAn=         5 AccDes= 0.00D+00
 Harris functional with IExCor=  205 and IRadAn=       5 diagonalized for initial guess.
 HarFok:  IExCor=  205 AccDes= 0.00D+00 IRadAn=         5 IDoV= 1 UseB2=F ITyADJ=14
 ICtDFT=  3500011 ScaDFX=  1.000000  1.000000  1.000000  1.000000
 FoFCou: FMM=F IPFlag=           0 FMFlag=      100000 FMFlg1=           0
         NFxFlg=           0 DoJE=T BraDBF=F KetDBF=T FulRan=T
         wScrn=  0.000000 ICntrl=       500 IOpCl=  0 I1Cent=   200000004 NGrid=           0
         NMat0=    1 NMatS0=      1 NMatT0=    0 NMatD0=    1 NMtDS0=    0 NMtDT0=    0
 Petite list used in FoFCou.
 Initial guess orbital symmetries:
       Occupied  (A') (A') (A') (A') (A') (A') (A') (A') (A") (A")
                 (A') (A')
       Virtual   (A") (A') (A') (A') (A") (A') (A') (A') (A') (A")
                 (A") (A') (A') (A') (A") (A') (A') (A') (A") (A')
                 (A") (A') (A') (A') (A") (A') (A') (A') (A") (A')
                 (A') (A') (A") (A') (A") (A") (A") (A') (A') (A')
                 (A') (A') (A") (A") (A') (A") (A') (A') (A') (A")
                 (A') (A') (A") (A') (A') (A") (A') (A") (A') (A")
                 (A') (A') (A') (A") (A') (A') (A') (A") (A') (A")
                 (A") (A") (A') (A") (A') (A') (A') (A') (A') (A")
                 (A') (A") (A') (A') (A") (A') (A") (A') (A") (A')
                 (A') (A") (A') (A") (A') (A') (A") (A') (A") (A')
                 (A") (A') (A') (A') (A") (A') (A") (A') (A') (A')
                 (A") (A') (A") (A') (A") (A') (A") (A') (A') (A')
                 (A') (A') (A") (A') (A") (A') (A") (A") (A') (A')
                 (A") (A') (A") (A') (A') (A') (A") (A") (A") (A")
                 (A') (A') (A') (A') (A') (A') (A') (A') (A')
 The electronic state of the initial guess is 1-A'.
 Keep R1 ints in memory in symmetry-blocked form, NReq=128070129.
 Requested convergence on RMS density matrix=1.00D-08 within 128 cycles.
 Requested convergence on MAX density matrix=1.00D-06.
 Requested convergence on             energy=1.00D-06.
 No special actions if energy rises.
 SCF Done:  E(RHF) =  -188.265948308     A.U. after   12 cycles
            NFock= 12  Conv=0.81D-08     -V/T= 1.9991
 ExpMin= 2.53D-02 ExpMax= 1.53D+04 ExpMxC= 5.22D+02 IAcc=3 IRadAn=         5 AccDes= 0.00D+00
 HarFok:  IExCor=  205 AccDes= 0.00D+00 IRadAn=         5 IDoV=-2 UseB2=F ITyADJ=14
 ICtDFT= 12500011 ScaDFX=  1.000000  1.000000  1.000000  1.000000
 Range of M.O.s used for correlation:     4   161
 NBasis=   161 NAE=    12 NBE=    12 NFC=     3 NFV=     0
 NROrb=    158 NOA=     9 NOB=     9 NVA=   149 NVB=   149

 **** Warning!!: The largest alpha MO coefficient is  0.36557327D+02

 Disk-based method using ON**2 memory for  9 occupieds at a time.
 Permanent disk used for amplitudes=     3924660 words.
 Estimated scratch disk usage=   113146432 words.
 Actual    scratch disk usage=   109232192 words.
 JobTyp=1 Pass  1:  I=   4 to  12 NPSUse=  2 ParTrn=T ParDer=T DoDerP=T.
 (rs|ai) integrals will be sorted in core.
 Spin components of T(2) and E(2):
     alpha-alpha T2 =       0.2347648520D-01 E2=     -0.8500289759D-01
     alpha-beta  T2 =       0.1231851207D+00 E2=     -0.4784879967D+00
     beta-beta   T2 =       0.2347648520D-01 E2=     -0.8500289759D-01
 ANorm=    0.1081729213D+01
 E2 =    -0.6484937918D+00 EUMP2 =    -0.18891444209972D+03
 G2DrvN: will do     5 centers at a time, making    1 passes.
 Calling FoFCou, ICntrl=  3107 FMM=F I1Cent=   0 AccDes= 0.00D+00.
 End of G2Drv F.D. properties file   721 does not exist.
 End of G2Drv F.D. properties file   722 does not exist.
 End of G2Drv F.D. properties file   788 does not exist.
          IDoAtm=1111
          Differentiating once with respect to electric field.
                with respect to dipole field.
          Differentiating once with respect to nuclear coordinates.
 Keep R1 ints in memory in symmetry-blocked form, NReq=128071153.
          There are    15 degrees of freedom in the 1st order CPHF.  IDoFFX=6 NUNeed=    15.
     12 vectors produced by pass  0 Test12= 1.19D-14 6.67D-09 XBig12= 8.11D+00 1.19D+00.
 AX will form    12 AO Fock derivatives at one time.
     12 vectors produced by pass  1 Test12= 1.19D-14 6.67D-09 XBig12= 8.98D-01 2.45D-01.
     12 vectors produced by pass  2 Test12= 1.19D-14 6.67D-09 XBig12= 2.44D-02 3.25D-02.
     12 vectors produced by pass  3 Test12= 1.19D-14 6.67D-09 XBig12= 6.76D-04 5.19D-03.
     12 vectors produced by pass  4 Test12= 1.19D-14 6.67D-09 XBig12= 1.00D-05 6.37D-04.
     12 vectors produced by pass  5 Test12= 1.19D-14 6.67D-09 XBig12= 1.49D-07 1.01D-04.
     12 vectors produced by pass  6 Test12= 1.19D-14 6.67D-09 XBig12= 2.07D-09 1.63D-05.
      9 vectors produced by pass  7 Test12= 1.19D-14 6.67D-09 XBig12= 2.05D-11 8.77D-07.
      4 vectors produced by pass  8 Test12= 1.19D-14 6.67D-09 XBig12= 1.73D-13 8.76D-08.
      1 vectors produced by pass  9 Test12= 1.19D-14 6.67D-09 XBig12= 1.54D-15 9.29D-09.
 InvSVY:  IOpt=1 It=  1 EMax= 6.66D-16
 Solved reduced A of dimension    98 with    12 vectors.
 End of Minotr F.D. properties file   721 does not exist.
 End of Minotr F.D. properties file   722 does not exist.
 End of Minotr F.D. properties file   788 does not exist.
 MDV=   536870912.
 Form MO integral derivatives with frozen-active canonical formalism.
 Discarding MO integrals.
 Reordered first order wavefunction length =      6393888
 In DefCFB: NBatch=  1 ICI= 12 ICA=149 LFMax= 50
            Large arrays: LIAPS=   218779680 LIARS=   130792200 words.
 Semi-Direct transformation.
 ModeAB=           2 MOrb=            12 LenV=     536062839
 LASXX=     23759367 LTotXX=    23759367 LenRXX=    23759367
 LTotAB=    24195042 MaxLAS=    35056140 LenRXY=    35056140
 NonZer=    47518734 LenScr=    72043008 LnRSAI=           0
 LnScr1=           0 LExtra=           0 Total=    130858515
 MaxDsk=          -1 SrtSym=           F ITran=            4
 JobTyp=0 Pass  1:  I=   1 to  12.
 (rs|ai) integrals will be sorted in core.
 Spin components of T(2) and E(2):
     alpha-alpha T2 =       0.2347648520D-01 E2=     -0.8500289759D-01
     alpha-beta  T2 =       0.1231851207D+00 E2=     -0.4784879967D+00
     beta-beta   T2 =       0.2347648520D-01 E2=     -0.8500289759D-01
 ANorm=    0.1529796124D+01
 E2 =    -0.6484937918D+00 EUMP2 =    -0.18891444209972D+03
          IDoAtm=1111
          Differentiating once with respect to electric field.
                with respect to dipole field.
          Differentiating once with respect to nuclear coordinates.
          There are     1 degrees of freedom in the 1st order CPHF.  IDoFFX=0 NUNeed=     1.
 LinEq1:  Iter=  0 NonCon=     1 RMS=6.00D-03 Max=9.60D-02 NDo=     1
 LinEq1:  Iter=  1 NonCon=     1 RMS=1.35D-03 Max=1.02D-02 NDo=     1
 LinEq1:  Iter=  2 NonCon=     1 RMS=4.81D-04 Max=4.87D-03 NDo=     1
 LinEq1:  Iter=  3 NonCon=     1 RMS=1.70D-04 Max=1.55D-03 NDo=     1
 LinEq1:  Iter=  4 NonCon=     1 RMS=6.86D-05 Max=1.24D-03 NDo=     1
 LinEq1:  Iter=  5 NonCon=     1 RMS=2.44D-05 Max=2.11D-04 NDo=     1
 LinEq1:  Iter=  6 NonCon=     1 RMS=1.20D-05 Max=1.71D-04 NDo=     1
 LinEq1:  Iter=  7 NonCon=     1 RMS=2.51D-06 Max=2.22D-05 NDo=     1
 LinEq1:  Iter=  8 NonCon=     1 RMS=5.43D-07 Max=5.00D-06 NDo=     1
 LinEq1:  Iter=  9 NonCon=     1 RMS=1.04D-07 Max=1.11D-06 NDo=     1
 LinEq1:  Iter= 10 NonCon=     1 RMS=1.76D-08 Max=1.59D-07 NDo=     1
 LinEq1:  Iter= 11 NonCon=     1 RMS=2.49D-09 Max=2.53D-08 NDo=     1
 LinEq1:  Iter= 12 NonCon=     1 RMS=4.02D-10 Max=4.38D-09 NDo=     1
 LinEq1:  Iter= 13 NonCon=     0 RMS=5.75D-11 Max=6.43D-10 NDo=     1
 Linear equations converged to 1.000D-10 1.000D-09 after    13 iterations.
 End of Minotr F.D. properties file   721 does not exist.
 End of Minotr F.D. properties file   722 does not exist.
 End of Minotr F.D. properties file   788 does not exist.
 Symmetrizing basis deriv contribution to polar:
 IMax=3 JMax=2 DiffMx= 0.00D+00
 G2DrvN: will do     5 centers at a time, making    1 passes.
 Calling FoFCou, ICntrl=  3107 FMM=F I1Cent=   0 AccDes= 0.00D+00.
 End of G2Drv F.D. properties file   721 does not exist.
 End of G2Drv F.D. properties file   722 does not exist.
 End of G2Drv F.D. properties file   788 does not exist.
 R2 and R3 integrals will be kept in memory, NReq=   332743010.
 DD1Dir will call FoFMem   1 times, MxPair=       156
 NAB=    78 NAA=     0 NBB=     0.
 Discarding MO integrals.

 **********************************************************************

            Population analysis using the SCF Density.

 **********************************************************************

 Orbital symmetries:
       Occupied  (A') (A') (A') (A') (A') (A') (A') (A') (A") (A')
                 (A") (A')
       Virtual   (A') (A') (A") (A') (A') (A') (A') (A") (A") (A')
                 (A') (A') (A") (A') (A') (A") (A') (A') (A') (A")
                 (A") (A') (A') (A") (A') (A') (A') (A') (A') (A")
                 (A') (A') (A") (A') (A") (A") (A') (A') (A") (A')
                 (A') (A") (A') (A") (A') (A") (A') (A') (A') (A")
                 (A') (A") (A') (A') (A') (A") (A") (A') (A') (A")
                 (A') (A') (A') (A") (A') (A') (A") (A') (A') (A")
                 (A") (A") (A") (A') (A') (A') (A') (A') (A') (A")
                 (A') (A") (A') (A') (A") (A") (A') (A") (A') (A')
                 (A') (A") (A') (A") (A') (A") (A') (A') (A") (A')
                 (A') (A") (A') (A') (A") (A') (A") (A') (A') (A")
                 (A') (A') (A") (A') (A") (A') (A') (A") (A') (A')
                 (A') (A') (A") (A') (A") (A') (A") (A") (A') (A')
                 (A") (A') (A") (A') (A') (A") (A') (A") (A") (A")
                 (A') (A') (A') (A') (A') (A') (A') (A') (A')
 The electronic state is 1-A'.
 Alpha  occ. eigenvalues --  -20.28927 -20.26593 -11.10188  -1.20423  -1.06462
 Alpha  occ. eigenvalues --   -0.54782  -0.44638  -0.39541  -0.36657  -0.20483
 Alpha  occ. eigenvalues --   -0.18575  -0.17854
 Alpha virt. eigenvalues --    0.14513   0.21190   0.21290   0.21711   0.28308
 Alpha virt. eigenvalues --    0.31710   0.32775   0.33585   0.37112   0.37178
 Alpha virt. eigenvalues --    0.39203   0.42074   0.42922   0.45846   0.50410
 Alpha virt. eigenvalues --    0.51107   0.51899   0.54281   0.58742   0.59502
 Alpha virt. eigenvalues --    0.62200   0.69802   0.70207   0.72191   0.78033
 Alpha virt. eigenvalues --    0.82974   0.90231   0.93128   0.95683   0.95899
 Alpha virt. eigenvalues --    1.01383   1.02815   1.04458   1.05729   1.07845
 Alpha virt. eigenvalues --    1.10324   1.12115   1.13634   1.14734   1.16188
 Alpha virt. eigenvalues --    1.22034   1.23135   1.23285   1.26875   1.28071
 Alpha virt. eigenvalues --    1.32290   1.32807   1.40173   1.43941   1.44425
 Alpha virt. eigenvalues --    1.46395   1.55940   1.56764   1.64648   1.65764
 Alpha virt. eigenvalues --    1.70965   1.78919   1.80407   1.83295   1.92168
 Alpha virt. eigenvalues --    1.93703   2.02103   2.09351   2.16383   2.23024
 Alpha virt. eigenvalues --    2.28964   2.43425   2.44253   2.46612   2.52496
 Alpha virt. eigenvalues --    2.59323   2.62974   2.64313   2.66043   2.67022
 Alpha virt. eigenvalues --    2.70609   2.75316   2.76673   2.81862   2.84121
 Alpha virt. eigenvalues --    2.87858   2.92736   2.92866   2.95174   2.96582
 Alpha virt. eigenvalues --    3.11961   3.13351   3.17172   3.18135   3.27951
 Alpha virt. eigenvalues --    3.30545   3.41267   3.43356   3.58549   3.66610
 Alpha virt. eigenvalues --    3.82099   3.84371   3.86545   4.12908   4.16026
 Alpha virt. eigenvalues --    4.24951   4.28822   4.31136   4.34012   4.39162
 Alpha virt. eigenvalues --    4.57488   4.58851   4.63344   4.87014   4.89480
 Alpha virt. eigenvalues --    4.93456   5.25397   5.29750   5.32386   5.38662
 Alpha virt. eigenvalues --    5.54586   5.55256   5.59245   5.92139   6.21585
 Alpha virt. eigenvalues --    6.51381   6.56634   6.85232   6.86029   6.89019
 Alpha virt. eigenvalues --    6.89049   7.11915   7.13404   7.13765   7.23048
 Alpha virt. eigenvalues --    7.38352   7.38791   7.44457   7.46021   7.50991
 Alpha virt. eigenvalues --    7.53608   7.54761   7.59664   7.80994   7.85644
 Alpha virt. eigenvalues --    7.88742   7.90148   7.94307   8.11475   8.24090
 Alpha virt. eigenvalues --    8.46921  14.29966  16.95541  17.36583
          Condensed to atoms (all electrons):
               1          2          3          4
     1  C    4.884060   0.463750   0.404492   0.269061
     2  O    0.463750   8.333009  -0.135453  -0.058961
     3  O    0.404492  -0.135453   8.510297  -0.041273
     4  H    0.269061  -0.058961  -0.041273   0.469405
 Mulliken charges:
               1
     1  C   -0.021362
     2  O   -0.602344
     3  O   -0.738062
     4  H    0.361768
 Sum of Mulliken charges =  -1.00000
 Mulliken charges with hydrogens summed into heavy atoms:
               1
     1  C    0.340406
     2  O   -0.602344
     3  O   -0.738062
 APT charges:
               1
     1  C    1.377720
     2  O   -1.044663
     3  O   -1.079904
     4  H   -0.253153
 Sum of APT charges =  -1.00000
 APT charges with hydrogens summed into heavy atoms:
               1
     1  C    1.124567
     2  O   -1.044663
     3  O   -1.079904
 Electronic spatial extent (au):  <R**2>=            130.3295
 Charge=             -1.0000 electrons
 Dipole moment (field-independent basis, Debye):
    X=              0.6801    Y=              1.6742    Z=              0.0000  Tot=              1.8071
 Quadrupole moment (field-independent basis, Debye-Ang):
   XX=            -28.6685   YY=            -20.5866   ZZ=            -18.6365
   XY=             -1.1672   XZ=              0.0000   YZ=              0.0000
 Traceless Quadrupole moment (field-independent basis, Debye-Ang):
   XX=             -6.0380   YY=              2.0439   ZZ=              3.9941
   XY=             -1.1672   XZ=              0.0000   YZ=              0.0000
 Octapole moment (field-independent basis, Debye-Ang**2):
  XXX=              2.2597  YYY=             -1.7235  ZZZ=              0.0000  XYY=              1.1310
  XXY=              0.9439  XXZ=              0.0000  XZZ=              0.8515  YZZ=             -0.2576
  YYZ=              0.0000  XYZ=              0.0000
 Hexadecapole moment (field-independent basis, Debye-Ang**3):
 XXXX=           -125.7627 YYYY=            -46.2910 ZZZZ=            -19.2659 XXXY=             -6.8067
 XXXZ=              0.0000 YYYX=             -5.6333 YYYZ=              0.0000 ZZZX=              0.0000
 ZZZY=              0.0000 XXYY=            -26.8672 XXZZ=            -22.8919 YYZZ=            -10.5722
 XXYZ=              0.0000 YYXZ=              0.0000 ZZXY=             -1.9992
 N-N= 6.491069616149D+01 E-N=-5.822781125371D+02  KE= 1.884273123334D+02
 Symmetry A'   KE= 1.807187397012D+02
 Symmetry A"   KE= 7.708572632221D+00
  Exact polarizability:  38.434   1.034  36.976   0.000   0.000  23.081
 Approx polarizability:  25.134   0.524  23.244   0.000   0.000  18.003
 Calling FoFJK, ICntrl=  10100127 FMM=F ISym2X=1 I1Cent= 0 IOpClX= 0 NMat=1 NMatS=1 NMatT=0.
 ***** Axes restored to original set *****
 -------------------------------------------------------------------
 Center     Atomic                   Forces (Hartrees/Bohr)
 Number     Number              X              Y              Z
 -------------------------------------------------------------------
      1        6          -0.005083601    0.000000000   -0.157359023
      2        8          -0.000132867    0.000000000    0.185016175
      3        8           0.010724466    0.000000000   -0.017394959
      4        1          -0.005507998    0.000000000   -0.010262193
 -------------------------------------------------------------------
 Cartesian Forces:  Max     0.185016175 RMS     0.070458000
 -----------------------------------------------------------------------------------------------
                       Internal Coordinate Forces (Hartree/Bohr or radian)
  Cent   Atom   N1       Length/X         N2         Alpha/Y        N3         Beta/Z          J
 -----------------------------------------------------------------------------------------------
      1  C 
      2  O        1   0.185016(     1)
      3  O        1   0.019417(     2)      2   0.015147(     4)
      4  H        1   0.009318(     3)      2   0.014859(     5)      3   0.000000(     6)     0
 -----------------------------------------------------------------------------------------------
 Internal  Forces:  Max     0.185016175 RMS     0.076534361

 GradGradGradGradGradGradGradGradGradGradGradGradGradGradGradGradGradGrad
 Berny optimization.
 Search for a local minimum.
 Step number   1 out of a maximum of   20
 All quantities printed in internal units (Hartrees-Bohrs-Radians)
 Second derivative matrix not updated -- analytic derivatives used.
 The second derivative matrix:
                          R1        R2        A1        A2         R
           R1           0.64523
           R2           0.03813   0.26249
           A1           0.02295  -0.05054   0.52945
           A2          -0.06595   0.00777   0.15093   0.33212
           R            0.10714   0.05194   0.08350   0.07920   1.24720
 ITU=  0
     Eigenvalues ---    0.20981   0.28426   0.61141   0.663821000.00000
 RFO step:  Lambda=-1.82024122D-03 EMin= 2.09812545D-01
 Linear search not attempted -- first point.
 Variable       Old X    -DE/DX   Delta X   Delta X   Delta X     New X
                                 (Linear)    (Quad)   (Total)
    R1        2.37778   0.01942   0.00000   0.03165   0.03165   2.40944
    R2        2.12642   0.00932   0.00000   0.03299   0.03299   2.15941
    A1        2.27209   0.01515   0.00000   0.01845   0.01845   2.29054
    A2        2.00555   0.01486   0.00000   0.04164   0.04164   2.04719
    R         2.17319   0.18502   0.00000   0.00000   0.00000   2.17319
         Item               Value     Threshold  Converged?
 Maximum Force            0.019417     0.000450     NO 
 RMS     Force            0.015117     0.000300     NO 
 Maximum Displacement     0.041638     0.001800     NO 
 RMS     Displacement     0.028861     0.001200     NO 
 Predicted change in Energy=-9.139109D-04
 GradGradGradGradGradGradGradGradGradGradGradGradGradGradGradGradGradGrad

 ---------------------------------------------------------------------------------------------------
                            Z-MATRIX (ANGSTROMS AND DEGREES)
   CD    Cent   Atom    N1       Length/X        N2       Alpha/Y        N3        Beta/Z          J
 ---------------------------------------------------------------------------------------------------
      1      1  C 
      2      2  O        1   1.150000(     1)
      3      3  O        1   1.275020(     2)      2  131.238(     4)
      4      4  H        1   1.142710(     3)      2  117.295(     5)      3  180.000(     6)      0
 ---------------------------------------------------------------------------------------------------
                         Z-Matrix orientation:                         
 ---------------------------------------------------------------------
 Center     Atomic      Atomic             Coordinates (Angstroms)
 Number     Number       Type             X           Y           Z
 ---------------------------------------------------------------------
      1          6           0        0.000000    0.000000    0.000000
      2          8           0        0.000000    0.000000    1.150000
      3          8           0        0.958780    0.000000   -0.840486
      4          1           0       -1.015477    0.000000   -0.524016
 ---------------------------------------------------------------------
                    Distance matrix (angstroms):
                    1          2          3          4
     1  C    0.000000
     2  O    1.150000   0.000000
     3  O    1.275020   2.209365   0.000000
     4  H    1.142710   1.957939   1.999461   0.000000
 Stoichiometry    CHO2(1-)
 Framework group  CS[SG(CHO2)]
 Deg. of freedom     5
 Full point group                 CS      NOp   2
 Largest Abelian subgroup         CS      NOp   2
 Largest concise Abelian subgroup C1      NOp   1
                         Standard orientation:                         
 ---------------------------------------------------------------------
 Center     Atomic      Atomic             Coordinates (Angstroms)
 Number     Number       Type             X           Y           Z
 ---------------------------------------------------------------------
      1          6           0        0.000000    0.301529    0.000000
      2          8           0        1.103503   -0.022171    0.000000
      3          8           0       -1.076379   -0.381907    0.000000
      4          1           0       -0.216995    1.423447    0.000000
 ---------------------------------------------------------------------
 Rotational constants (GHZ):         114.7927628          12.9311098          11.6219293
 Standard basis: Aug-CC-pVTZ (5D, 7F)
 There are   129 symmetry adapted cartesian basis functions of A'  symmetry.
 There are    61 symmetry adapted cartesian basis functions of A"  symmetry.
 There are   106 symmetry adapted basis functions of A'  symmetry.
 There are    55 symmetry adapted basis functions of A"  symmetry.
   161 basis functions,   243 primitive gaussians,   190 cartesian basis functions
    12 alpha electrons       12 beta electrons
       nuclear repulsion energy        64.3960486396 Hartrees.
 NAtoms=    4 NActive=    4 NUniq=    4 SFac= 1.00D+00 NAtFMM=   60 NAOKFM=F Big=F
 Integral buffers will be    131072 words long.
 Raffenetti 1 integral format.
 Two-electron integral symmetry is turned on.
 One-electron integrals computed using PRISM.
 NBasis=   161 RedAO= T EigKep=  9.96D-05  NBF=   106    55
 NBsUse=   161 1.00D-06 EigRej= -1.00D+00 NBFU=   106    55
 Initial guess from the checkpoint file:  "C:\Users\Garrett\Downloads\NanoclusterOutput\Gau-24168.chk"
 B after Tr=     0.000000    0.000000    0.000000
         Rot=    0.999865    0.000000    0.000000   -0.016445 Ang=  -1.88 deg.
 Initial guess orbital symmetries:
       Occupied  (A') (A') (A') (A') (A') (A') (A') (A') (A") (A')
                 (A") (A')
       Virtual   (A') (A') (A") (A') (A') (A') (A') (A") (A") (A')
                 (A') (A') (A") (A') (A') (A") (A') (A') (A') (A")
                 (A") (A') (A') (A") (A') (A') (A') (A') (A') (A")
                 (A') (A') (A") (A') (A") (A") (A') (A') (A") (A')
                 (A') (A") (A') (A") (A') (A") (A') (A') (A') (A")
                 (A') (A") (A') (A') (A') (A") (A") (A') (A') (A")
                 (A') (A') (A') (A") (A') (A') (A") (A') (A') (A")
                 (A") (A") (A") (A') (A') (A') (A') (A') (A') (A")
                 (A') (A") (A') (A') (A") (A") (A') (A") (A') (A')
                 (A') (A") (A') (A") (A') (A") (A') (A') (A") (A')
                 (A') (A") (A') (A') (A") (A') (A") (A') (A') (A")
                 (A') (A') (A") (A') (A") (A') (A') (A") (A') (A')
                 (A') (A') (A") (A') (A") (A') (A") (A") (A') (A')
                 (A") (A') (A") (A') (A') (A") (A') (A") (A") (A")
                 (A') (A') (A') (A') (A') (A') (A') (A') (A')
 ExpMin= 2.53D-02 ExpMax= 1.53D+04 ExpMxC= 5.22D+02 IAcc=3 IRadAn=         5 AccDes= 0.00D+00
 Harris functional with IExCor=  205 and IRadAn=       5 diagonalized for initial guess.
 HarFok:  IExCor=  205 AccDes= 0.00D+00 IRadAn=         5 IDoV= 1 UseB2=F ITyADJ=14
 ICtDFT=  3500011 ScaDFX=  1.000000  1.000000  1.000000  1.000000
 FoFCou: FMM=F IPFlag=           0 FMFlag=      100000 FMFlg1=           0
         NFxFlg=           0 DoJE=T BraDBF=F KetDBF=T FulRan=T
         wScrn=  0.000000 ICntrl=       500 IOpCl=  0 I1Cent=   200000004 NGrid=           0
         NMat0=    1 NMatS0=      1 NMatT0=    0 NMatD0=    1 NMtDS0=    0 NMtDT0=    0
 Petite list used in FoFCou.
 Keep R1 ints in memory in symmetry-blocked form, NReq=128070129.
 Requested convergence on RMS density matrix=1.00D-08 within 128 cycles.
 Requested convergence on MAX density matrix=1.00D-06.
 Requested convergence on             energy=1.00D-06.
 No special actions if energy rises.
 SCF Done:  E(RHF) =  -188.265283911     A.U. after   11 cycles
            NFock= 11  Conv=0.35D-08     -V/T= 1.9996
 ExpMin= 2.53D-02 ExpMax= 1.53D+04 ExpMxC= 5.22D+02 IAcc=3 IRadAn=         5 AccDes= 0.00D+00
 HarFok:  IExCor=  205 AccDes= 0.00D+00 IRadAn=         5 IDoV=-2 UseB2=F ITyADJ=14
 ICtDFT= 12500011 ScaDFX=  1.000000  1.000000  1.000000  1.000000
 Range of M.O.s used for correlation:     4   161
 NBasis=   161 NAE=    12 NBE=    12 NFC=     3 NFV=     0
 NROrb=    158 NOA=     9 NOB=     9 NVA=   149 NVB=   149

 **** Warning!!: The largest alpha MO coefficient is  0.34948473D+02

 Fully direct method using O(ONN) memory.
 JobTyp=1 Pass  1:  I=   4 to  12 NPSUse=  2 ParTrn=T ParDer=T DoDerP=T.
 Spin components of T(2) and E(2):
     alpha-alpha T2 =       0.2371038212D-01 E2=     -0.8520294218D-01
     alpha-beta  T2 =       0.1244486433D+00 E2=     -0.4796861428D+00
     beta-beta   T2 =       0.2371038212D-01 E2=     -0.8520294218D-01
 ANorm=    0.1082529172D+01
 E2 =    -0.6500920271D+00 EUMP2 =    -0.18891537593836D+03
          IDoAtm=1111
          Differentiating once with respect to electric field.
                with respect to dipole field.
          Differentiating once with respect to nuclear coordinates.
 Keep R1 ints in memory in symmetry-blocked form, NReq=128071153.
          There are     1 degrees of freedom in the 1st order CPHF.  IDoFFX=0 NUNeed=     1.
 LinEq1:  Iter=  0 NonCon=     1 RMS=6.09D-03 Max=9.56D-02 NDo=     1
 AX will form     1 AO Fock derivatives at one time.
 LinEq1:  Iter=  1 NonCon=     1 RMS=1.40D-03 Max=1.14D-02 NDo=     1
 LinEq1:  Iter=  2 NonCon=     1 RMS=5.09D-04 Max=5.19D-03 NDo=     1
 LinEq1:  Iter=  3 NonCon=     1 RMS=1.86D-04 Max=1.56D-03 NDo=     1
 LinEq1:  Iter=  4 NonCon=     1 RMS=7.68D-05 Max=1.37D-03 NDo=     1
 LinEq1:  Iter=  5 NonCon=     1 RMS=2.78D-05 Max=2.47D-04 NDo=     1
 LinEq1:  Iter=  6 NonCon=     1 RMS=1.32D-05 Max=1.74D-04 NDo=     1
 LinEq1:  Iter=  7 NonCon=     1 RMS=2.70D-06 Max=2.37D-05 NDo=     1
 LinEq1:  Iter=  8 NonCon=     1 RMS=5.83D-07 Max=4.96D-06 NDo=     1
 LinEq1:  Iter=  9 NonCon=     1 RMS=1.13D-07 Max=1.18D-06 NDo=     1
 LinEq1:  Iter= 10 NonCon=     1 RMS=1.91D-08 Max=1.50D-07 NDo=     1
 LinEq1:  Iter= 11 NonCon=     1 RMS=2.76D-09 Max=2.84D-08 NDo=     1
 LinEq1:  Iter= 12 NonCon=     1 RMS=4.43D-10 Max=4.94D-09 NDo=     1
 LinEq1:  Iter= 13 NonCon=     0 RMS=6.29D-11 Max=6.97D-10 NDo=     1
 Linear equations converged to 1.000D-10 1.000D-09 after    13 iterations.
 End of Minotr F.D. properties file   721 does not exist.
 End of Minotr F.D. properties file   722 does not exist.
 End of Minotr F.D. properties file   788 does not exist.
 Calling FoFJK, ICntrl=  10002127 FMM=F ISym2X=1 I1Cent= 0 IOpClX= 0 NMat=1 NMatS=1 NMatT=0.
 ***** Axes restored to original set *****
 -------------------------------------------------------------------
 Center     Atomic                   Forces (Hartrees/Bohr)
 Number     Number              X              Y              Z
 -------------------------------------------------------------------
      1        6          -0.000550130    0.000000000   -0.174185609
      2        8           0.000034889    0.000000000    0.175386488
      3        8           0.000974513    0.000000000   -0.000890323
      4        1          -0.000459272    0.000000000   -0.000310556
 -------------------------------------------------------------------
 Cartesian Forces:  Max     0.175386488 RMS     0.071357901
 -----------------------------------------------------------------------------------------------
                       Internal Coordinate Forces (Hartree/Bohr or radian)
  Cent   Atom   N1       Length/X         N2         Alpha/Y        N3         Beta/Z          J
 -----------------------------------------------------------------------------------------------
      1  C 
      2  O        1   0.175386(     1)
      3  O        1   0.001320(     2)      2   0.000065(     4)
      4  H        1   0.000551(     3)      2   0.000141(     5)      3   0.000000(     6)     0
 -----------------------------------------------------------------------------------------------
 Internal  Forces:  Max     0.175386488 RMS     0.071603642

 GradGradGradGradGradGradGradGradGradGradGradGradGradGradGradGradGradGrad
 Berny optimization.
 Search for a local minimum.
 Step number   2 out of a maximum of   20
 All quantities printed in internal units (Hartrees-Bohrs-Radians)
 Update second derivatives using D2CorN and points    1    2
 DE= -9.34D-04 DEPred=-9.14D-04 R= 1.02D+00
 TightC=F SS=  1.41D+00  RLast= 6.45D-02 DXNew= 5.0454D-01 1.9360D-01
 Trust test= 1.02D+00 RLast= 6.45D-02 DXMaxT set to 3.00D-01
 The second derivative matrix:
                          R1        R2        A1        A2         R
           R1           0.63564
           R2           0.03127   0.25861
           A1           0.02003  -0.05176   0.52931
           A2          -0.07251   0.00506   0.15063   0.33147
           R            0.10595   0.05070   0.08280   0.07763   1.24720
 ITU=  1  0
     Eigenvalues ---    0.20987   0.27872   0.60720   0.659251000.00000
 RFO step:  Lambda=-1.38581752D-06 EMin= 2.09868638D-01
 Quartic linear search produced a step of  0.03960.
 Variable       Old X    -DE/DX   Delta X   Delta X   Delta X     New X
                                 (Linear)    (Quad)   (Total)
    R1        2.40944   0.00132   0.00125   0.00089   0.00214   2.41158
    R2        2.15941   0.00055   0.00131   0.00062   0.00192   2.16133
    A1        2.29054   0.00007   0.00073  -0.00075  -0.00002   2.29053
    A2        2.04719   0.00014   0.00165  -0.00073   0.00091   2.04810
    R         2.17319   0.17539   0.00000   0.00000   0.00000   2.17319
         Item               Value     Threshold  Converged?
 Maximum Force            0.001320     0.000450     NO 
 RMS     Force            0.000719     0.000300     NO 
 Maximum Displacement     0.002140     0.001800     NO 
 RMS     Displacement     0.001350     0.001200     NO 
 Predicted change in Energy=-1.944225D-06
 GradGradGradGradGradGradGradGradGradGradGradGradGradGradGradGradGradGrad

 ---------------------------------------------------------------------------------------------------
                            Z-MATRIX (ANGSTROMS AND DEGREES)
   CD    Cent   Atom    N1       Length/X        N2       Alpha/Y        N3        Beta/Z          J
 ---------------------------------------------------------------------------------------------------
      1      1  C 
      2      2  O        1   1.150000(     1)
      3      3  O        1   1.276152(     2)      2  131.237(     4)
      4      4  H        1   1.143728(     3)      2  117.347(     5)      3  180.000(     6)      0
 ---------------------------------------------------------------------------------------------------
                         Z-Matrix orientation:                         
 ---------------------------------------------------------------------
 Center     Atomic      Atomic             Coordinates (Angstroms)
 Number     Number       Type             X           Y           Z
 ---------------------------------------------------------------------
      1          6           0        0.000000    0.000000    0.000000
      2          8           0        0.000000    0.000000    1.150000
      3          8           0        0.959647    0.000000   -0.841215
      4          1           0       -1.015902    0.000000   -0.525412
 ---------------------------------------------------------------------
                    Distance matrix (angstroms):
                    1          2          3          4
     1  C    0.000000
     2  O    1.150000   0.000000
     3  O    1.276152   2.210398   0.000000
     4  H    1.143728   1.959352   2.000631   0.000000
 Stoichiometry    CHO2(1-)
 Framework group  CS[SG(CHO2)]
 Deg. of freedom     5
 Full point group                 CS      NOp   2
 Largest Abelian subgroup         CS      NOp   2
 Largest concise Abelian subgroup C1      NOp   1
                         Standard orientation:                         
 ---------------------------------------------------------------------
 Center     Atomic      Atomic             Coordinates (Angstroms)
 Number     Number       Type             X           Y           Z
 ---------------------------------------------------------------------
      1          6           0        0.000000    0.301712    0.000000
      2          8           0        1.103911   -0.020593    0.000000
      3          8           0       -1.076457   -0.383711    0.000000
      4          1           0       -0.219633    1.424154    0.000000
 ---------------------------------------------------------------------
 Rotational constants (GHZ):         114.6552706          12.9187813          11.6105614
 Standard basis: Aug-CC-pVTZ (5D, 7F)
 There are   129 symmetry adapted cartesian basis functions of A'  symmetry.
 There are    61 symmetry adapted cartesian basis functions of A"  symmetry.
 There are   106 symmetry adapted basis functions of A'  symmetry.
 There are    55 symmetry adapted basis functions of A"  symmetry.
   161 basis functions,   243 primitive gaussians,   190 cartesian basis functions
    12 alpha electrons       12 beta electrons
       nuclear repulsion energy        64.3659305226 Hartrees.
 NAtoms=    4 NActive=    4 NUniq=    4 SFac= 1.00D+00 NAtFMM=   60 NAOKFM=F Big=F
 Integral buffers will be    131072 words long.
 Raffenetti 1 integral format.
 Two-electron integral symmetry is turned on.
 One-electron integrals computed using PRISM.
 NBasis=   161 RedAO= T EigKep=  1.00D-04  NBF=   106    55
 NBsUse=   161 1.00D-06 EigRej= -1.00D+00 NBFU=   106    55
 Initial guess from the checkpoint file:  "C:\Users\Garrett\Downloads\NanoclusterOutput\Gau-24168.chk"
 B after Tr=     0.000000    0.000000    0.000000
         Rot=    1.000000    0.000000    0.000000   -0.000721 Ang=  -0.08 deg.
 Initial guess orbital symmetries:
       Occupied  (A') (A') (A') (A') (A') (A') (A') (A') (A") (A')
                 (A") (A')
       Virtual   (A') (A') (A") (A') (A') (A') (A') (A") (A") (A')
                 (A') (A') (A") (A') (A') (A") (A') (A') (A') (A")
                 (A") (A') (A') (A") (A') (A') (A') (A') (A') (A")
                 (A') (A') (A") (A') (A") (A") (A') (A') (A") (A')
                 (A') (A') (A") (A") (A') (A') (A") (A') (A') (A")
                 (A') (A") (A') (A') (A') (A") (A") (A') (A') (A")
                 (A') (A') (A') (A") (A') (A') (A") (A') (A') (A")
                 (A") (A") (A") (A') (A') (A') (A') (A') (A") (A')
                 (A') (A") (A') (A') (A") (A") (A') (A') (A") (A')
                 (A') (A") (A') (A") (A') (A') (A") (A') (A") (A')
                 (A') (A") (A') (A') (A") (A') (A") (A') (A') (A")
                 (A') (A') (A") (A') (A") (A') (A') (A") (A') (A')
                 (A') (A') (A") (A') (A") (A') (A") (A') (A") (A')
                 (A') (A") (A") (A') (A') (A") (A') (A") (A") (A")
                 (A') (A') (A') (A') (A') (A') (A') (A') (A')
 Keep R1 ints in memory in symmetry-blocked form, NReq=128070129.
 Requested convergence on RMS density matrix=1.00D-08 within 128 cycles.
 Requested convergence on MAX density matrix=1.00D-06.
 Requested convergence on             energy=1.00D-06.
 No special actions if energy rises.
 SCF Done:  E(RHF) =  -188.265185971     A.U. after    9 cycles
            NFock=  9  Conv=0.43D-08     -V/T= 1.9996
 ExpMin= 2.53D-02 ExpMax= 1.53D+04 ExpMxC= 5.22D+02 IAcc=3 IRadAn=         5 AccDes= 0.00D+00
 HarFok:  IExCor=  205 AccDes= 0.00D+00 IRadAn=         5 IDoV=-2 UseB2=F ITyADJ=14
 ICtDFT= 12500011 ScaDFX=  1.000000  1.000000  1.000000  1.000000
 Range of M.O.s used for correlation:     4   161
 NBasis=   161 NAE=    12 NBE=    12 NFC=     3 NFV=     0
 NROrb=    158 NOA=     9 NOB=     9 NVA=   149 NVB=   149

 **** Warning!!: The largest alpha MO coefficient is  0.34833637D+02

 Fully direct method using O(ONN) memory.
 JobTyp=1 Pass  1:  I=   4 to  12 NPSUse=  2 ParTrn=T ParDer=T DoDerP=T.
 Spin components of T(2) and E(2):
     alpha-alpha T2 =       0.2372507432D-01 E2=     -0.8521501211D-01
     alpha-beta  T2 =       0.1245294261D+00 E2=     -0.4797620276D+00
     beta-beta   T2 =       0.2372507432D-01 E2=     -0.8521501211D-01
 ANorm=    0.1082580055D+01
 E2 =    -0.6501920518D+00 EUMP2 =    -0.18891537802269D+03
          IDoAtm=1111
          Differentiating once with respect to electric field.
                with respect to dipole field.
          Differentiating once with respect to nuclear coordinates.
 Keep R1 ints in memory in symmetry-blocked form, NReq=128071153.
          There are     1 degrees of freedom in the 1st order CPHF.  IDoFFX=0 NUNeed=     1.
 LinEq1:  Iter=  0 NonCon=     1 RMS=6.10D-03 Max=9.56D-02 NDo=     1
 AX will form     1 AO Fock derivatives at one time.
 LinEq1:  Iter=  1 NonCon=     1 RMS=1.40D-03 Max=1.15D-02 NDo=     1
 LinEq1:  Iter=  2 NonCon=     1 RMS=5.11D-04 Max=5.24D-03 NDo=     1
 LinEq1:  Iter=  3 NonCon=     1 RMS=1.87D-04 Max=1.57D-03 NDo=     1
 LinEq1:  Iter=  4 NonCon=     1 RMS=7.74D-05 Max=1.38D-03 NDo=     1
 LinEq1:  Iter=  5 NonCon=     1 RMS=2.81D-05 Max=2.49D-04 NDo=     1
 LinEq1:  Iter=  6 NonCon=     1 RMS=1.33D-05 Max=1.74D-04 NDo=     1
 LinEq1:  Iter=  7 NonCon=     1 RMS=2.71D-06 Max=2.38D-05 NDo=     1
 LinEq1:  Iter=  8 NonCon=     1 RMS=5.87D-07 Max=4.98D-06 NDo=     1
 LinEq1:  Iter=  9 NonCon=     1 RMS=1.14D-07 Max=1.18D-06 NDo=     1
 LinEq1:  Iter= 10 NonCon=     1 RMS=1.92D-08 Max=1.50D-07 NDo=     1
 LinEq1:  Iter= 11 NonCon=     1 RMS=2.79D-09 Max=2.86D-08 NDo=     1
 LinEq1:  Iter= 12 NonCon=     1 RMS=4.46D-10 Max=4.98D-09 NDo=     1
 LinEq1:  Iter= 13 NonCon=     0 RMS=6.34D-11 Max=7.00D-10 NDo=     1
 Linear equations converged to 1.000D-10 1.000D-09 after    13 iterations.
 End of Minotr F.D. properties file   721 does not exist.
 End of Minotr F.D. properties file   722 does not exist.
 End of Minotr F.D. properties file   788 does not exist.
 Calling FoFJK, ICntrl=  10002127 FMM=F ISym2X=1 I1Cent= 0 IOpClX= 0 NMat=1 NMatS=1 NMatT=0.
 ***** Axes restored to original set *****
 -------------------------------------------------------------------
 Center     Atomic                   Forces (Hartrees/Bohr)
 Number     Number              X              Y              Z
 -------------------------------------------------------------------
      1        6          -0.000037212    0.000000000   -0.174959385
      2        8          -0.000008122    0.000000000    0.175007687
      3        8           0.000057680    0.000000000   -0.000050843
      4        1          -0.000012346    0.000000000    0.000002541
 -------------------------------------------------------------------
 Cartesian Forces:  Max     0.175007687 RMS     0.071436735
 -----------------------------------------------------------------------------------------------
                       Internal Coordinate Forces (Hartree/Bohr or radian)
  Cent   Atom   N1       Length/X         N2         Alpha/Y        N3         Beta/Z          J
 -----------------------------------------------------------------------------------------------
      1  C 
      2  O        1   0.175008(     1)
      3  O        1   0.000077(     2)      2   0.000001(     4)
      4  H        1   0.000010(     3)      2  -0.000017(     5)      3   0.000000(     6)     0
 -----------------------------------------------------------------------------------------------
 Internal  Forces:  Max     0.175007687 RMS     0.071446596

 GradGradGradGradGradGradGradGradGradGradGradGradGradGradGradGradGradGrad
 Berny optimization.
 Search for a local minimum.
 Step number   3 out of a maximum of   20
 All quantities printed in internal units (Hartrees-Bohrs-Radians)
 Update second derivatives using D2CorN and points    1    2    3
 DE= -2.08D-06 DEPred=-1.94D-06 R= 1.07D+00
 TightC=F SS=  1.41D+00  RLast= 3.02D-03 DXNew= 5.0454D-01 9.0585D-03
 Trust test= 1.07D+00 RLast= 3.02D-03 DXMaxT set to 3.00D-01
 The second derivative matrix:
                          R1        R2        A1        A2         R
           R1           0.60889
           R2           0.01592   0.25306
           A1           0.01868  -0.05211   0.52977
           A2          -0.07851   0.00495   0.15135   0.33427
           R            0.10395   0.04882   0.08246   0.07624   1.24720
 ITU=  1  1  0
     Eigenvalues ---    0.20983   0.27336   0.59937   0.643431000.00000
 RFO step:  Lambda= 0.00000000D+00 EMin= 2.09828507D-01
 Quartic linear search produced a step of  0.04402.
 Variable       Old X    -DE/DX   Delta X   Delta X   Delta X     New X
                                 (Linear)    (Quad)   (Total)
    R1        2.41158   0.00008   0.00009   0.00003   0.00012   2.41170
    R2        2.16133   0.00001   0.00008  -0.00005   0.00003   2.16136
    A1        2.29053   0.00000   0.00000   0.00001   0.00001   2.29053
    A2        2.04810  -0.00002   0.00004  -0.00007  -0.00003   2.04807
    R         2.17319   0.17501   0.00000   0.00000   0.00000   2.17319
         Item               Value     Threshold  Converged?
 Maximum Force            0.000077     0.000450     YES
 RMS     Force            0.000040     0.000300     YES
 Maximum Displacement     0.000124     0.001800     YES
 RMS     Displacement     0.000059     0.001200     YES
 Predicted change in Energy=-5.071153D-09
 Optimization completed.
    -- Stationary point found.
                       ----------------------------
                       !   Optimized Parameters   !
                       ! (Angstroms and Degrees)  !
 ----------------------                            ----------------------
 !      Name          Value   Derivative information (Atomic Units)     !
 ------------------------------------------------------------------------
 !       R1          1.2762   -DE/DX =    0.0001                        !
 !       R2          1.1437   -DE/DX =    0.0                           !
 !       A1        131.2374   -DE/DX =    0.0                           !
 !       A2        117.3474   -DE/DX =    0.0                           !
 !        R          1.15     -DE/DX =    0.175                         !
 ------------------------------------------------------------------------
 GradGradGradGradGradGradGradGradGradGradGradGradGradGradGradGradGradGrad

 ---------------------------------------------------------------------------------------------------
                            Z-MATRIX (ANGSTROMS AND DEGREES)
   CD    Cent   Atom    N1       Length/X        N2       Alpha/Y        N3        Beta/Z          J
 ---------------------------------------------------------------------------------------------------
      1      1  C 
      2      2  O        1   1.150000(     1)
      3      3  O        1   1.276152(     2)      2  131.237(     4)
      4      4  H        1   1.143728(     3)      2  117.347(     5)      3  180.000(     6)      0
 ---------------------------------------------------------------------------------------------------
                         Z-Matrix orientation:                         
 ---------------------------------------------------------------------
 Center     Atomic      Atomic             Coordinates (Angstroms)
 Number     Number       Type             X           Y           Z
 ---------------------------------------------------------------------
      1          6           0        0.000000    0.000000    0.000000
      2          8           0        0.000000    0.000000    1.150000
      3          8           0        0.959647    0.000000   -0.841215
      4          1           0       -1.015902    0.000000   -0.525412
 ---------------------------------------------------------------------
                    Distance matrix (angstroms):
                    1          2          3          4
     1  C    0.000000
     2  O    1.150000   0.000000
     3  O    1.276152   2.210398   0.000000
     4  H    1.143728   1.959352   2.000631   0.000000
 Stoichiometry    CHO2(1-)
 Framework group  CS[SG(CHO2)]
 Deg. of freedom     5
 Full point group                 CS      NOp   2
 Largest Abelian subgroup         CS      NOp   2
 Largest concise Abelian subgroup C1      NOp   1
                         Standard orientation:                         
 ---------------------------------------------------------------------
 Center     Atomic      Atomic             Coordinates (Angstroms)
 Number     Number       Type             X           Y           Z
 ---------------------------------------------------------------------
      1          6           0        0.000000    0.301712    0.000000
      2          8           0        1.103911   -0.020593    0.000000
      3          8           0       -1.076457   -0.383711    0.000000
      4          1           0       -0.219633    1.424154    0.000000
 ---------------------------------------------------------------------
 Rotational constants (GHZ):         114.6552706          12.9187813          11.6105614

 **********************************************************************

            Population analysis using the SCF Density.

 **********************************************************************

 Orbital symmetries:
       Occupied  (A') (A') (A') (A') (A') (A') (A') (A') (A") (A')
                 (A") (A')
       Virtual   (A') (A') (A") (A') (A') (A') (A') (A") (A") (A')
                 (A') (A') (A") (A') (A') (A") (A') (A') (A') (A")
                 (A") (A') (A') (A") (A') (A') (A') (A') (A') (A")
                 (A') (A') (A") (A') (A") (A") (A') (A') (A") (A')
                 (A') (A') (A") (A") (A') (A') (A") (A') (A') (A")
                 (A') (A") (A') (A') (A') (A") (A") (A') (A') (A")
                 (A') (A') (A') (A") (A') (A') (A") (A') (A') (A")
                 (A") (A") (A") (A') (A') (A') (A') (A') (A") (A')
                 (A') (A") (A') (A') (A") (A") (A') (A') (A") (A')
                 (A') (A") (A') (A") (A') (A') (A") (A') (A") (A')
                 (A') (A") (A') (A') (A") (A') (A") (A') (A') (A")
                 (A') (A') (A") (A') (A") (A') (A') (A") (A') (A')
                 (A') (A') (A") (A') (A") (A') (A") (A') (A") (A')
                 (A') (A") (A") (A') (A') (A") (A') (A") (A") (A")
                 (A') (A') (A') (A') (A') (A') (A') (A') (A')
 The electronic state is 1-A'.
 Alpha  occ. eigenvalues --  -20.29673 -20.26685 -11.10878  -1.20563  -1.05899
 Alpha  occ. eigenvalues --   -0.54519  -0.44742  -0.39541  -0.36679  -0.20784
 Alpha  occ. eigenvalues --   -0.18617  -0.17602
 Alpha virt. eigenvalues --    0.14543   0.21161   0.21317   0.21713   0.28315
 Alpha virt. eigenvalues --    0.31717   0.32733   0.33471   0.37202   0.37262
 Alpha virt. eigenvalues --    0.39166   0.41897   0.42854   0.45857   0.49992
 Alpha virt. eigenvalues --    0.50792   0.52159   0.54280   0.58595   0.59047
 Alpha virt. eigenvalues --    0.62391   0.69466   0.70312   0.72111   0.77996
 Alpha virt. eigenvalues --    0.82867   0.88855   0.93245   0.94798   0.95596
 Alpha virt. eigenvalues --    1.01230   1.02206   1.04500   1.05522   1.07320
 Alpha virt. eigenvalues --    1.10533   1.11895   1.13576   1.14548   1.16304
 Alpha virt. eigenvalues --    1.21816   1.22872   1.22891   1.26457   1.27404
 Alpha virt. eigenvalues --    1.32237   1.32583   1.39212   1.42961   1.43954
 Alpha virt. eigenvalues --    1.47223   1.55503   1.57454   1.64254   1.66016
 Alpha virt. eigenvalues --    1.70894   1.78413   1.80173   1.83087   1.90983
 Alpha virt. eigenvalues --    1.93438   2.01831   2.07955   2.15507   2.20404
 Alpha virt. eigenvalues --    2.27545   2.42608   2.43146   2.46686   2.52414
 Alpha virt. eigenvalues --    2.58803   2.62587   2.63920   2.65195   2.66366
 Alpha virt. eigenvalues --    2.70452   2.74627   2.76089   2.83520   2.83609
 Alpha virt. eigenvalues --    2.86717   2.91092   2.92581   2.95809   2.96161
 Alpha virt. eigenvalues --    3.12076   3.12725   3.16119   3.17247   3.28060
 Alpha virt. eigenvalues --    3.31683   3.41454   3.42514   3.57715   3.67889
 Alpha virt. eigenvalues --    3.81863   3.82091   3.86345   4.10446   4.13830
 Alpha virt. eigenvalues --    4.22210   4.28153   4.30723   4.32114   4.38560
 Alpha virt. eigenvalues --    4.56201   4.56860   4.61162   4.81944   4.87680
 Alpha virt. eigenvalues --    4.91923   5.23593   5.23671   5.29155   5.35502
 Alpha virt. eigenvalues --    5.47769   5.53633   5.59065   5.86688   6.18618
 Alpha virt. eigenvalues --    6.51083   6.57455   6.84550   6.85236   6.88857
 Alpha virt. eigenvalues --    6.89045   7.11432   7.11664   7.12517   7.22393
 Alpha virt. eigenvalues --    7.36706   7.37127   7.43874   7.46076   7.50036
 Alpha virt. eigenvalues --    7.51950   7.54688   7.58816   7.79890   7.85862
 Alpha virt. eigenvalues --    7.87480   7.89351   7.93988   8.09920   8.22318
 Alpha virt. eigenvalues --    8.41442  14.05627  16.72106  17.25879
          Condensed to atoms (all electrons):
               1          2          3          4
     1  C    4.848423   0.472512   0.391293   0.289725
     2  O    0.472512   8.303212  -0.128038  -0.060694
     3  O    0.391293  -0.128038   8.525522  -0.046114
     4  H    0.289725  -0.060694  -0.046114   0.485475
 Mulliken charges:
               1
     1  C   -0.001953
     2  O   -0.586992
     3  O   -0.742664
     4  H    0.331609
 Sum of Mulliken charges =  -1.00000
 Mulliken charges with hydrogens summed into heavy atoms:
               1
     1  C    0.329656
     2  O   -0.586992
     3  O   -0.742664
 Electronic spatial extent (au):  <R**2>=            132.2426
 Charge=             -1.0000 electrons
 Dipole moment (field-independent basis, Debye):
    X=              0.7656    Y=              1.6578    Z=              0.0000  Tot=              1.8260
 Quadrupole moment (field-independent basis, Debye-Ang):
   XX=            -28.7022   YY=            -20.8339   ZZ=            -18.7115
   XY=             -1.5115   XZ=              0.0000   YZ=              0.0000
 Traceless Quadrupole moment (field-independent basis, Debye-Ang):
   XX=             -5.9530   YY=              1.9153   ZZ=              4.0377
   XY=             -1.5115   XZ=              0.0000   YZ=              0.0000
 Octapole moment (field-independent basis, Debye-Ang**2):
  XXX=              2.5726  YYY=             -1.7967  ZZZ=              0.0000  XYY=              1.3512
  XXY=              0.9855  XXZ=              0.0000  XZZ=              1.0128  YZZ=             -0.2547
  YYZ=              0.0000  XYZ=              0.0000
 Hexadecapole moment (field-independent basis, Debye-Ang**3):
 XXXX=           -127.0724 YYYY=            -48.0574 ZZZZ=            -19.4598 XXXY=             -8.3749
 XXXZ=              0.0000 YYYX=             -6.9800 YYYZ=              0.0000 ZZZX=              0.0000
 ZZZY=              0.0000 XXYY=            -27.4349 XXZZ=            -23.1495 YYZZ=            -10.8815
 XXYZ=              0.0000 YYXZ=              0.0000 ZZXY=             -2.4239
 N-N= 6.436593052265D+01 E-N=-5.810730110281D+02  KE= 1.883344040618D+02
 Symmetry A'   KE= 1.806304012242D+02
 Symmetry A"   KE= 7.704002837608D+00
 1|1|UNPC-DESKTOP-F4NP0R6|POpt|RMP2-FC|Aug-CC-pVTZ|C1H1O2(1-)|GARRETT|2
 3-Jul-2018|1||# MP2 Aug-cc-pvTZ opt=(noeigen,calcfc,z-matrix)||Formate
 ||-1,1|C|O,1,R|O,1,R1,2,A1|H,1,R2,2,A2,3,180.,0||R1=1.27615228|R2=1.14
 372811|A1=131.23743104|A2=117.34742883|R=1.15||Version=EM64W-G16RevB.0
 1|State=1-A'|HF=-188.265186|MP2=-188.915378|RMSD=4.348e-009|RMSF=7.144
 e-002|Dipole=-0.5765367,0.,0.1374758|PG=CS [SG(C1H1O2)]||@


 DEFINE YOUR TERMS, YOU WILL PERMIT ME AGAIN TO SAY, 
 OR WE SHALL NEVER UNDERSTAND ONE ANOTHER.

                                    -- VOLTAIRE
 Job cpu time:       0 days  0 hours 28 minutes 53.0 seconds.
 Elapsed time:       0 days  0 hours 28 minutes 27.9 seconds.
 File lengths (MBytes):  RWF=   2790 Int=      0 D2E=      0 Chk=      4 Scr=      1
 Normal termination of Gaussian 16 at Mon Jul 23 14:03:31 2018.
