 Entering Link 1 = C:\G16W\l1.exe PID=     16880.
  
 Copyright (c) 1988-2017, Gaussian, Inc.  All Rights Reserved.
  
 This is part of the Gaussian(R) 16 program.  It is based on
 the Gaussian(R) 09 system (copyright 2009, Gaussian, Inc.),
 the Gaussian(R) 03 system (copyright 2003, Gaussian, Inc.),
 the Gaussian(R) 98 system (copyright 1998, Gaussian, Inc.),
 the Gaussian(R) 94 system (copyright 1995, Gaussian, Inc.),
 the Gaussian 92(TM) system (copyright 1992, Gaussian, Inc.),
 the Gaussian 90(TM) system (copyright 1990, Gaussian, Inc.),
 the Gaussian 88(TM) system (copyright 1988, Gaussian, Inc.),
 the Gaussian 86(TM) system (copyright 1986, Carnegie Mellon
 University), and the Gaussian 82(TM) system (copyright 1983,
 Carnegie Mellon University). Gaussian is a federally registered
 trademark of Gaussian, Inc.
  
 This software contains proprietary and confidential information,
 including trade secrets, belonging to Gaussian, Inc.
  
 This software is provided under written license and may be
 used, copied, transmitted, or stored only in accord with that
 written license.
  
 The following legend is applicable only to US Government
 contracts under FAR:
  
                    RESTRICTED RIGHTS LEGEND
  
 Use, reproduction and disclosure by the US Government is
 subject to restrictions as set forth in subparagraphs (a)
 and (c) of the Commercial Computer Software - Restricted
 Rights clause in FAR 52.227-19.
  
 Gaussian, Inc.
 340 Quinnipiac St., Bldg. 40, Wallingford CT 06492
  
  
 ---------------------------------------------------------------
 Warning -- This program may not be used in any manner that
 competes with the business of Gaussian, Inc. or will provide
 assistance to any competitor of Gaussian, Inc.  The licensee
 of this program is prohibited from giving any competitor of
 Gaussian, Inc. access to this program.  By using this program,
 the user acknowledges that Gaussian, Inc. is engaged in the
 business of creating and licensing software in the field of
 computational chemistry and represents and warrants to the
 licensee that it is not a competitor of Gaussian, Inc. and that
 it will not use this program in any manner prohibited above.
 ---------------------------------------------------------------
  

 Cite this work as:
 Gaussian 16, Revision B.01,
 M. J. Frisch, G. W. Trucks, H. B. Schlegel, G. E. Scuseria, 
 M. A. Robb, J. R. Cheeseman, G. Scalmani, V. Barone, 
 G. A. Petersson, H. Nakatsuji, X. Li, M. Caricato, A. V. Marenich, 
 J. Bloino, B. G. Janesko, R. Gomperts, B. Mennucci, H. P. Hratchian, 
 J. V. Ortiz, A. F. Izmaylov, J. L. Sonnenberg, D. Williams-Young, 
 F. Ding, F. Lipparini, F. Egidi, J. Goings, B. Peng, A. Petrone, 
 T. Henderson, D. Ranasinghe, V. G. Zakrzewski, J. Gao, N. Rega, 
 G. Zheng, W. Liang, M. Hada, M. Ehara, K. Toyota, R. Fukuda, 
 J. Hasegawa, M. Ishida, T. Nakajima, Y. Honda, O. Kitao, H. Nakai, 
 T. Vreven, K. Throssell, J. A. Montgomery, Jr., J. E. Peralta, 
 F. Ogliaro, M. J. Bearpark, J. J. Heyd, E. N. Brothers, K. N. Kudin, 
 V. N. Staroverov, T. A. Keith, R. Kobayashi, J. Normand, 
 K. Raghavachari, A. P. Rendell, J. C. Burant, S. S. Iyengar, 
 J. Tomasi, M. Cossi, J. M. Millam, M. Klene, C. Adamo, R. Cammi, 
 J. W. Ochterski, R. L. Martin, K. Morokuma, O. Farkas, 
 J. B. Foresman, and D. J. Fox, Gaussian, Inc., Wallingford CT, 2016.
 
 ******************************************
 Gaussian 16:  EM64W-G16RevB.01 16-Dec-2017
                22-Jul-2018 
 ******************************************
 %nproc=2
 Will use up to    2 processors via shared memory.
 %mem=4gb
 %chk=TiO21aHigher2.chk
 ------------------------------------------
 # MP2 Def2TZVP opt=(noeigen,z-matrix) freq
 ------------------------------------------
 1/10=7,11=1,18=40,38=1/1,3;
 2/12=2,17=6,18=5,29=3,40=1/2;
 3/5=44,7=101,11=9,25=1,30=1,71=1/1,2,3;
 4//1;
 5/5=2,38=5/2;
 8/6=4,10=1/1;
 9/15=2,16=-3/6;
 10/5=1/2;
 6/7=2,8=2,9=2,10=2/1;
 7/12=2,29=1/1,2,3,16;
 1/10=7,11=1,18=40/3(2);
 2/29=3/2;
 99//99;
 2/29=3/2;
 3/5=44,7=101,11=9,25=1,30=1,71=1/1,2,3;
 4/5=5,16=3,69=1/1;
 5/5=2,38=5/2;
 8/6=4,10=1/1;
 9/15=2,16=-3/6;
 10/5=1/2;
 7/12=2/1,2,3,16;
 1/11=1,18=40/3(-8);
 2/29=3/2;
 6/7=2,8=2,9=2,10=2/1;
 99/9=10/99;
 -------
 TiO21a1
 -------
 Symbolic Z-matrix:
 Charge =  0 Multiplicity = 1
 Ti
 O                    1    R1
 O                    1    R1       2    A1
       Variables:
  R1                    1.68346                  
       Constants:
  A1                  111.                       
 

 GradGradGradGradGradGradGradGradGradGradGradGradGradGradGradGradGradGrad
 Berny optimization.
 Initialization pass.
                       ----------------------------
                       !    Initial Parameters    !
                       ! (Angstroms and Degrees)  !
 ----------------------                            ----------------------
 !      Name          Value   Derivative information (Atomic Units)     !
 ------------------------------------------------------------------------
 !       R1          1.6835   estimate D2E/DX2                          !
 !       A1        111.0      Frozen                                    !
 ------------------------------------------------------------------------
 Trust Radius=3.00D-01 FncErr=1.00D-07 GrdErr=1.00D-07 EigMax=2.50D+02 EigMin=1.00D-04
 Number of steps in this run=     20 maximum allowed number of steps=    100.
 GradGradGradGradGradGradGradGradGradGradGradGradGradGradGradGradGradGrad

 ---------------------------------------------------------------------------------------------------
                            Z-MATRIX (ANGSTROMS AND DEGREES)
   CD    Cent   Atom    N1       Length/X        N2       Alpha/Y        N3        Beta/Z          J
 ---------------------------------------------------------------------------------------------------
      1      1  Ti
      2      2  O        1   1.683455(     1)
      3      3  O        1   1.683455(     2)      2  111.000(     3)
 ---------------------------------------------------------------------------------------------------
                         Z-Matrix orientation:                         
 ---------------------------------------------------------------------
 Center     Atomic      Atomic             Coordinates (Angstroms)
 Number     Number       Type             X           Y           Z
 ---------------------------------------------------------------------
      1         22           0        0.000000    0.000000    0.000000
      2          8           0        0.000000    0.000000    1.683455
      3          8           0        1.571641    0.000000   -0.603296
 ---------------------------------------------------------------------
                    Distance matrix (angstroms):
                    1          2          3
     1  Ti   0.000000
     2  O    1.683455   0.000000
     3  O    1.683455   2.774759   0.000000
 Stoichiometry    O2Ti
 Framework group  C2V[C2(Ti),SGV(O2)]
 Deg. of freedom     2
 Full point group                 C2V     NOp   4
 Largest Abelian subgroup         C2V     NOp   4
 Largest concise Abelian subgroup C2      NOp   2
                         Standard orientation:                         
 ---------------------------------------------------------------------
 Center     Atomic      Atomic             Coordinates (Angstroms)
 Number     Number       Type             X           Y           Z
 ---------------------------------------------------------------------
      1         22           0        0.000000    0.000000    0.401482
      2          8           0        0.000000    1.387379   -0.552038
      3          8           0        0.000000   -1.387379   -0.552038
 ---------------------------------------------------------------------
 Rotational constants (GHZ):          28.9686452           8.2075731           6.3955476
 Standard basis: def2TZVP (5D, 7F)
 There are    50 symmetry adapted cartesian basis functions of A1  symmetry.
 There are    16 symmetry adapted cartesian basis functions of A2  symmetry.
 There are    22 symmetry adapted cartesian basis functions of B1  symmetry.
 There are    36 symmetry adapted cartesian basis functions of B2  symmetry.
 There are    41 symmetry adapted basis functions of A1  symmetry.
 There are    15 symmetry adapted basis functions of A2  symmetry.
 There are    20 symmetry adapted basis functions of B1  symmetry.
 There are    31 symmetry adapted basis functions of B2  symmetry.
   107 basis functions,   204 primitive gaussians,   124 cartesian basis functions
    19 alpha electrons       19 beta electrons
       nuclear repulsion energy       122.8531728708 Hartrees.
 NAtoms=    3 NActive=    3 NUniq=    2 SFac= 2.25D+00 NAtFMM=   60 NAOKFM=F Big=F
 Integral buffers will be    131072 words long.
 Raffenetti 1 integral format.
 Two-electron integral symmetry is turned on.
 One-electron integrals computed using PRISM.
   4 Symmetry operations used in ECPInt.
 ECPInt:  NShTT=     703 NPrTT=    3029 LenC2=     698 LenP2D=    2546.
 LDataN:  DoStor=T MaxTD1= 6 Len=  172
 NBasis=   107 RedAO= T EigKep=  3.51D-03  NBF=    41    15    20    31
 NBsUse=   107 1.00D-06 EigRej= -1.00D+00 NBFU=    41    15    20    31
 ExpMin= 3.27D-02 ExpMax= 2.12D+05 ExpMxC= 2.04D+03 IAcc=3 IRadAn=         5 AccDes= 0.00D+00
 Harris functional with IExCor=  205 and IRadAn=       5 diagonalized for initial guess.
 HarFok:  IExCor=  205 AccDes= 0.00D+00 IRadAn=         5 IDoV= 1 UseB2=F ITyADJ=14
 ICtDFT=  3500011 ScaDFX=  1.000000  1.000000  1.000000  1.000000
 FoFCou: FMM=F IPFlag=           0 FMFlag=      100000 FMFlg1=           0
         NFxFlg=           0 DoJE=T BraDBF=F KetDBF=T FulRan=T
         wScrn=  0.000000 ICntrl=       500 IOpCl=  0 I1Cent=   200000004 NGrid=           0
         NMat0=    1 NMatS0=      1 NMatT0=    0 NMatD0=    1 NMtDS0=    0 NMtDT0=    0
 Petite list used in FoFCou.
 Initial guess orbital symmetries:
       Occupied  (A1) (A1) (B2) (A1) (B2) (A1) (B1) (A1) (B2) (A1)
                 (B1) (A1) (B2) (A1) (B2) (A2) (B1) (A1) (B2)
       Virtual   (A1) (B1) (A1) (A2) (B2) (A1) (B1) (A1) (B2) (B1)
                 (A2) (A1) (A1) (B2) (A1) (B2) (A1) (B2) (A1) (A2)
                 (B1) (B1) (A2) (A1) (B2) (A1) (B2) (A1) (B1) (A1)
                 (B2) (A2) (B1) (B2) (A1) (A1) (B1) (A2) (B2) (A1)
                 (B1) (B2) (A1) (A1) (A2) (B1) (B2) (A1) (B2) (B1)
                 (A1) (A2) (B2) (A1) (B1) (B2) (A2) (A1) (B2) (A1)
                 (A1) (B2) (A2) (B2) (A2) (B1) (A1) (B2) (A1) (B1)
                 (A1) (B1) (B2) (A2) (B2) (A1) (A2) (B2) (A1) (B1)
                 (B1) (B2) (A2) (A1) (A1) (B2) (A1) (B2)
 The electronic state of the initial guess is 1-A1.
 Keep R1 ints in memory in symmetry-blocked form, NReq=20959436.
 Requested convergence on RMS density matrix=1.00D-08 within 128 cycles.
 Requested convergence on MAX density matrix=1.00D-06.
 Requested convergence on             energy=1.00D-06.
 No special actions if energy rises.
 SCF Done:  E(RHF) =  -998.156691317     A.U. after   16 cycles
            NFock= 16  Conv=0.99D-08     -V/T= 2.0006
 ExpMin= 3.27D-02 ExpMax= 2.12D+05 ExpMxC= 2.04D+03 IAcc=3 IRadAn=         5 AccDes= 0.00D+00
 HarFok:  IExCor=  205 AccDes= 0.00D+00 IRadAn=         5 IDoV=-2 UseB2=F ITyADJ=14
 ICtDFT= 12500011 ScaDFX=  1.000000  1.000000  1.000000  1.000000
 Range of M.O.s used for correlation:    12   107
 NBasis=   107 NAE=    19 NBE=    19 NFC=    11 NFV=     0
 NROrb=     96 NOA=     8 NOB=     8 NVA=    88 NVB=    88
 Fully direct method using O(ONN) memory.
 JobTyp=1 Pass  1:  I=  12 to  19 NPSUse=  2 ParTrn=T ParDer=T DoDerP=T.
 Spin components of T(2) and E(2):
     alpha-alpha T2 =       0.4414392387D-01 E2=     -0.1031154566D+00
     alpha-beta  T2 =       0.1906970426D+00 E2=     -0.4989136189D+00
     beta-beta   T2 =       0.4414392387D-01 E2=     -0.1031154566D+00
 ANorm=    0.1130922142D+01
 E2 =    -0.7051445320D+00 EUMP2 =    -0.99886183584921D+03
          IDoAtm=111
          Differentiating once with respect to electric field.
                with respect to dipole field.
          Differentiating once with respect to nuclear coordinates.
 Keep R1 ints in memory in symmetry-blocked form, NReq=20960211.
          There are     1 degrees of freedom in the 1st order CPHF.  IDoFFX=0 NUNeed=     1.
 LinEq1:  Iter=  0 NonCon=     1 RMS=1.51D-02 Max=2.56D-01 NDo=     1
 AX will form     1 AO Fock derivatives at one time.
 LinEq1:  Iter=  1 NonCon=     1 RMS=8.03D-03 Max=8.92D-02 NDo=     1
 LinEq1:  Iter=  2 NonCon=     1 RMS=3.98D-03 Max=5.24D-02 NDo=     1
 LinEq1:  Iter=  3 NonCon=     1 RMS=1.78D-03 Max=2.03D-02 NDo=     1
 LinEq1:  Iter=  4 NonCon=     1 RMS=4.36D-04 Max=5.28D-03 NDo=     1
 LinEq1:  Iter=  5 NonCon=     1 RMS=1.28D-04 Max=1.71D-03 NDo=     1
 LinEq1:  Iter=  6 NonCon=     1 RMS=4.26D-05 Max=5.12D-04 NDo=     1
 LinEq1:  Iter=  7 NonCon=     1 RMS=1.22D-05 Max=1.66D-04 NDo=     1
 LinEq1:  Iter=  8 NonCon=     1 RMS=2.67D-06 Max=3.66D-05 NDo=     1
 LinEq1:  Iter=  9 NonCon=     1 RMS=6.44D-07 Max=8.83D-06 NDo=     1
 LinEq1:  Iter= 10 NonCon=     1 RMS=1.52D-07 Max=2.10D-06 NDo=     1
 LinEq1:  Iter= 11 NonCon=     1 RMS=3.16D-08 Max=4.10D-07 NDo=     1
 LinEq1:  Iter= 12 NonCon=     1 RMS=6.07D-09 Max=7.89D-08 NDo=     1
 LinEq1:  Iter= 13 NonCon=     1 RMS=1.22D-09 Max=1.91D-08 NDo=     1
 LinEq1:  Iter= 14 NonCon=     1 RMS=3.07D-10 Max=4.41D-09 NDo=     1
 LinEq1:  Iter= 15 NonCon=     0 RMS=6.22D-11 Max=9.21D-10 NDo=     1
 Linear equations converged to 1.000D-10 1.000D-09 after    15 iterations.
 End of Minotr F.D. properties file   721 does not exist.
 End of Minotr F.D. properties file   722 does not exist.
 End of Minotr F.D. properties file   788 does not exist.

 **********************************************************************

            Population analysis using the SCF Density.

 **********************************************************************

 Orbital symmetries:
       Occupied  (A1) (A1) (A1) (B2) (A1) (B1) (B2) (A1) (B2) (A1)
                 (B1) (A1) (B2) (A1) (B2) (A2) (A1) (B1) (B2)
       Virtual   (A1) (B1) (A1) (B2) (A1) (A2) (B1) (A1) (A2) (A1)
                 (B2) (B1) (A1) (B2) (A1) (B2) (A1) (B1) (A2) (A1)
                 (B2) (A1) (B1) (B2) (A2) (A1) (B2) (A1) (B1) (A1)
                 (B2) (B1) (B2) (A2) (A1) (A1) (B1) (A2) (B2) (A1)
                 (B2) (B1) (A1) (A1) (A2) (B1) (B2) (A1) (B1) (B2)
                 (A1) (A2) (B2) (A1) (B1) (B2) (A2) (A1) (A1) (B2)
                 (A1) (B2) (A2) (B2) (A2) (B1) (A1) (B2) (A1) (B1)
                 (A1) (B1) (B2) (A2) (B2) (A1) (A2) (B2) (A1) (B1)
                 (B1) (B2) (A2) (A1) (A1) (B2) (A1) (B2)
 The electronic state is 1-A1.
 Alpha  occ. eigenvalues -- -183.41580 -21.59095 -20.51126 -20.51125 -17.95866
 Alpha  occ. eigenvalues --  -17.95739 -17.95714  -2.99962  -1.93418  -1.92874
 Alpha  occ. eigenvalues --   -1.92049  -1.16789  -1.15309  -0.49901  -0.48736
 Alpha  occ. eigenvalues --   -0.44890  -0.43628  -0.43107  -0.40637
 Alpha virt. eigenvalues --   -0.04068   0.04072   0.04586   0.08777   0.12338
 Alpha virt. eigenvalues --    0.13351   0.16602   0.16739   0.17284   0.18852
 Alpha virt. eigenvalues --    0.21336   0.21503   0.24204   0.29186   0.32805
 Alpha virt. eigenvalues --    0.61642   0.63213   0.65760   0.66195   0.69100
 Alpha virt. eigenvalues --    0.73455   0.75043   0.77010   0.78304   0.79077
 Alpha virt. eigenvalues --    0.81764   0.98929   1.01007   1.21592   1.35871
 Alpha virt. eigenvalues --    1.47803   1.53215   1.55650   1.56342   1.57029
 Alpha virt. eigenvalues --    1.58815   1.61225   1.82862   1.85781   1.90435
 Alpha virt. eigenvalues --    1.98755   2.02328   2.06597   2.13404   2.16302
 Alpha virt. eigenvalues --    2.20440   2.25539   2.33217   2.49910   2.51662
 Alpha virt. eigenvalues --    2.57954   2.58820   2.75772   2.78216   3.16288
 Alpha virt. eigenvalues --    3.18907   3.21040   3.24010   3.40982   3.41332
 Alpha virt. eigenvalues --    4.22390   4.37694   5.61714   5.62695   5.63254
 Alpha virt. eigenvalues --    5.63286   5.63368   5.63744   5.65204   5.67613
 Alpha virt. eigenvalues --    5.79627   5.79718   5.85200   5.85526   6.16949
 Alpha virt. eigenvalues --    6.18582   6.79741   6.82081   6.82625   6.83148
 Alpha virt. eigenvalues --    7.04346   7.04734   7.06510   7.13465   7.37814
 Alpha virt. eigenvalues --    7.55544  45.06835  45.09202
          Condensed to atoms (all electrons):
               1          2          3
     1  Ti  19.691527   0.383725   0.383725
     2  O    0.383725   8.381404   0.005382
     3  O    0.383725   0.005382   8.381404
 Mulliken charges:
               1
     1  Ti   1.541022
     2  O   -0.770511
     3  O   -0.770511
 Sum of Mulliken charges =   0.00000
 Mulliken charges with hydrogens summed into heavy atoms:
               1
     1  Ti   1.541022
     2  O   -0.770511
     3  O   -0.770511
 Electronic spatial extent (au):  <R**2>=            203.1345
 Charge=              0.0000 electrons
 Dipole moment (field-independent basis, Debye):
    X=              0.0000    Y=              0.0000    Z=              8.4611  Tot=              8.4611
 Quadrupole moment (field-independent basis, Debye-Ang):
   XX=            -22.5544   YY=            -39.6802   ZZ=            -22.6105
   XY=              0.0000   XZ=              0.0000   YZ=              0.0000
 Traceless Quadrupole moment (field-independent basis, Debye-Ang):
   XX=              5.7273   YY=            -11.3985   ZZ=              5.6712
   XY=              0.0000   XZ=              0.0000   YZ=              0.0000
 Octapole moment (field-independent basis, Debye-Ang**2):
  XXX=              0.0000  YYY=              0.0000  ZZZ=             14.8398  XYY=              0.0000
  XXY=              0.0000  XXZ=              4.7715  XZZ=              0.0000  YZZ=              0.0000
  YYZ=              9.1862  XYZ=              0.0000
 Hexadecapole moment (field-independent basis, Debye-Ang**3):
 XXXX=            -20.3652 YYYY=           -204.9175 ZZZZ=            -49.6622 XXXY=              0.0000
 XXXZ=              0.0000 YYYX=              0.0000 YYYZ=              0.0000 ZZZX=              0.0000
 ZZZY=              0.0000 XXYY=            -34.1884 XXZZ=            -11.4161 YYZZ=            -41.7094
 XXYZ=              0.0000 YYXZ=              0.0000 ZZXY=              0.0000
 N-N= 1.228531728708D+02 E-N=-2.612196167952D+03  KE= 9.976073613027D+02
 Symmetry A1   KE= 7.286948879541D+02
 Symmetry A2   KE= 4.211916354968D+00
 Symmetry B1   KE= 9.717367098842D+01
 Symmetry B2   KE= 1.675268860053D+02
   4 Symmetry operations used in ECPInt.
 ECPInt:  NShTT=     703 NPrTT=    3029 LenC2=     698 LenP2D=    2546.
 LDataN:  DoStor=T MaxTD1= 7 Len=  274
 Calling FoFJK, ICntrl=  10002127 FMM=F ISym2X=1 I1Cent= 0 IOpClX= 0 NMat=1 NMatS=1 NMatT=0.
 ***** Axes restored to original set *****
 -------------------------------------------------------------------
 Center     Atomic                   Forces (Hartrees/Bohr)
 Number     Number              X              Y              Z
 -------------------------------------------------------------------
      1       22          -0.005615621    0.000000000   -0.003859509
      2        8           0.003790742    0.000000000    0.000499580
      3        8           0.001824879    0.000000000    0.003359929
 -------------------------------------------------------------------
 Cartesian Forces:  Max     0.005615621 RMS     0.002899610
 -----------------------------------------------------------------------------------------------
                       Internal Coordinate Forces (Hartree/Bohr or radian)
  Cent   Atom   N1       Length/X         N2         Alpha/Y        N3         Beta/Z          J
 -----------------------------------------------------------------------------------------------
      1  Ti
      2  O        1   0.000500(     1)
      3  O        1   0.000500(     2)      2  -0.012059(     3)
 -----------------------------------------------------------------------------------------------
 Internal  Forces:  Max     0.012059371 RMS     0.006974420

 GradGradGradGradGradGradGradGradGradGradGradGradGradGradGradGradGradGrad
 Berny optimization.
 Search for a local minimum.
 Step number   1 out of a maximum of   20
 All quantities printed in internal units (Hartrees-Bohrs-Radians)
 Second derivative matrix not updated -- first step.
 The second derivative matrix:
                          R1        A1
           R1           0.69507
           A1           0.00000   0.25000
 ITU=  0
     Eigenvalues ---    0.695071000.00000
 RFO step:  Lambda=-1.43628725D-06 EMin= 6.95070614D-01
 Linear search not attempted -- first point.
 Variable       Old X    -DE/DX   Delta X   Delta X   Delta X     New X
                                 (Linear)    (Quad)   (Total)
    R1        3.18127   0.00100   0.00000   0.00144   0.00144   3.18271
    A1        1.93732  -0.01206   0.00000   0.00000   0.00000   1.93732
         Item               Value     Threshold  Converged?
 Maximum Force            0.000999     0.000450     NO 
 RMS     Force            0.000999     0.000300     NO 
 Maximum Displacement     0.001437     0.001800     YES
 RMS     Displacement     0.001016     0.001200     YES
 Predicted change in Energy=-7.181436D-07
 GradGradGradGradGradGradGradGradGradGradGradGradGradGradGradGradGradGrad

 ---------------------------------------------------------------------------------------------------
                            Z-MATRIX (ANGSTROMS AND DEGREES)
   CD    Cent   Atom    N1       Length/X        N2       Alpha/Y        N3        Beta/Z          J
 ---------------------------------------------------------------------------------------------------
      1      1  Ti
      2      2  O        1   1.684216(     1)
      3      3  O        1   1.684216(     2)      2  111.000(     3)
 ---------------------------------------------------------------------------------------------------
                         Z-Matrix orientation:                         
 ---------------------------------------------------------------------
 Center     Atomic      Atomic             Coordinates (Angstroms)
 Number     Number       Type             X           Y           Z
 ---------------------------------------------------------------------
      1         22           0        0.000000    0.000000    0.000000
      2          8           0        0.000000    0.000000    1.684216
      3          8           0        1.572351    0.000000   -0.603569
 ---------------------------------------------------------------------
                    Distance matrix (angstroms):
                    1          2          3
     1  Ti   0.000000
     2  O    1.684216   0.000000
     3  O    1.684216   2.776013   0.000000
 Stoichiometry    O2Ti
 Framework group  C2V[C2(Ti),SGV(O2)]
 Deg. of freedom     2
 Full point group                 C2V     NOp   4
 Largest Abelian subgroup         C2V     NOp   4
 Largest concise Abelian subgroup C2      NOp   2
                         Standard orientation:                         
 ---------------------------------------------------------------------
 Center     Atomic      Atomic             Coordinates (Angstroms)
 Number     Number       Type             X           Y           Z
 ---------------------------------------------------------------------
      1         22           0        0.000000    0.000000    0.401663
      2          8           0        0.000000    1.388006   -0.552287
      3          8           0        0.000000   -1.388006   -0.552287
 ---------------------------------------------------------------------
 Rotational constants (GHZ):          28.9424834           8.2001608           6.3897717
 Standard basis: def2TZVP (5D, 7F)
 There are    50 symmetry adapted cartesian basis functions of A1  symmetry.
 There are    16 symmetry adapted cartesian basis functions of A2  symmetry.
 There are    22 symmetry adapted cartesian basis functions of B1  symmetry.
 There are    36 symmetry adapted cartesian basis functions of B2  symmetry.
 There are    41 symmetry adapted basis functions of A1  symmetry.
 There are    15 symmetry adapted basis functions of A2  symmetry.
 There are    20 symmetry adapted basis functions of B1  symmetry.
 There are    31 symmetry adapted basis functions of B2  symmetry.
   107 basis functions,   204 primitive gaussians,   124 cartesian basis functions
    19 alpha electrons       19 beta electrons
       nuclear repulsion energy       122.7976853830 Hartrees.
 NAtoms=    3 NActive=    3 NUniq=    2 SFac= 2.25D+00 NAtFMM=   60 NAOKFM=F Big=F
 Integral buffers will be    131072 words long.
 Raffenetti 1 integral format.
 Two-electron integral symmetry is turned on.
 One-electron integrals computed using PRISM.
   4 Symmetry operations used in ECPInt.
 ECPInt:  NShTT=     703 NPrTT=    3029 LenC2=     698 LenP2D=    2546.
 LDataN:  DoStor=T MaxTD1= 6 Len=  172
 NBasis=   107 RedAO= T EigKep=  3.51D-03  NBF=    41    15    20    31
 NBsUse=   107 1.00D-06 EigRej= -1.00D+00 NBFU=    41    15    20    31
 Initial guess from the checkpoint file:  "TiO21aHigher2.chk"
 B after Tr=     0.000000    0.000000    0.000000
         Rot=    1.000000    0.000000    0.000000    0.000000 Ang=   0.00 deg.
 Initial guess orbital symmetries:
       Occupied  (A1) (A1) (A1) (B2) (A1) (B1) (B2) (A1) (B2) (A1)
                 (B1) (A1) (B2) (A1) (B2) (A2) (A1) (B1) (B2)
       Virtual   (A1) (B1) (A1) (B2) (A1) (A2) (B1) (A1) (A2) (A1)
                 (B2) (B1) (A1) (B2) (A1) (B2) (A1) (B1) (A2) (A1)
                 (B2) (A1) (B1) (B2) (A2) (A1) (B2) (A1) (B1) (A1)
                 (B2) (B1) (B2) (A2) (A1) (A1) (B1) (A2) (B2) (A1)
                 (B2) (B1) (A1) (A1) (A2) (B1) (B2) (A1) (B1) (B2)
                 (A1) (A2) (B2) (A1) (B1) (B2) (A2) (A1) (A1) (B2)
                 (A1) (B2) (A2) (B2) (A2) (B1) (A1) (B2) (A1) (B1)
                 (A1) (B1) (B2) (A2) (B2) (A1) (A2) (B2) (A1) (B1)
                 (B1) (B2) (A2) (A1) (A1) (B2) (A1) (B2)
 Keep R1 ints in memory in symmetry-blocked form, NReq=20959436.
 Requested convergence on RMS density matrix=1.00D-08 within 128 cycles.
 Requested convergence on MAX density matrix=1.00D-06.
 Requested convergence on             energy=1.00D-06.
 No special actions if energy rises.
 SCF Done:  E(RHF) =  -998.156470785     A.U. after   11 cycles
            NFock= 11  Conv=0.50D-08     -V/T= 2.0006
 ExpMin= 3.27D-02 ExpMax= 2.12D+05 ExpMxC= 2.04D+03 IAcc=3 IRadAn=         5 AccDes= 0.00D+00
 HarFok:  IExCor=  205 AccDes= 0.00D+00 IRadAn=         5 IDoV=-2 UseB2=F ITyADJ=14
 ICtDFT= 12500011 ScaDFX=  1.000000  1.000000  1.000000  1.000000
 Range of M.O.s used for correlation:    12   107
 NBasis=   107 NAE=    19 NBE=    19 NFC=    11 NFV=     0
 NROrb=     96 NOA=     8 NOB=     8 NVA=    88 NVB=    88
 Fully direct method using O(ONN) memory.
 JobTyp=1 Pass  1:  I=  12 to  19 NPSUse=  2 ParTrn=T ParDer=T DoDerP=T.
 Spin components of T(2) and E(2):
     alpha-alpha T2 =       0.4419137197D-01 E2=     -0.1031486911D+00
     alpha-beta  T2 =       0.1908942368D+00 E2=     -0.4990683575D+00
     beta-beta   T2 =       0.4419137197D-01 E2=     -0.1031486911D+00
 ANorm=    0.1131051272D+01
 E2 =    -0.7053657396D+00 EUMP2 =    -0.99886183652447D+03
          IDoAtm=111
          Differentiating once with respect to electric field.
                with respect to dipole field.
          Differentiating once with respect to nuclear coordinates.
 Keep R1 ints in memory in symmetry-blocked form, NReq=20960211.
          There are     1 degrees of freedom in the 1st order CPHF.  IDoFFX=0 NUNeed=     1.
 LinEq1:  Iter=  0 NonCon=     1 RMS=1.51D-02 Max=2.57D-01 NDo=     1
 AX will form     1 AO Fock derivatives at one time.
 LinEq1:  Iter=  1 NonCon=     1 RMS=8.04D-03 Max=8.93D-02 NDo=     1
 LinEq1:  Iter=  2 NonCon=     1 RMS=3.99D-03 Max=5.25D-02 NDo=     1
 LinEq1:  Iter=  3 NonCon=     1 RMS=1.78D-03 Max=2.03D-02 NDo=     1
 LinEq1:  Iter=  4 NonCon=     1 RMS=4.38D-04 Max=5.30D-03 NDo=     1
 LinEq1:  Iter=  5 NonCon=     1 RMS=1.28D-04 Max=1.72D-03 NDo=     1
 LinEq1:  Iter=  6 NonCon=     1 RMS=4.28D-05 Max=5.16D-04 NDo=     1
 LinEq1:  Iter=  7 NonCon=     1 RMS=1.23D-05 Max=1.67D-04 NDo=     1
 LinEq1:  Iter=  8 NonCon=     1 RMS=2.68D-06 Max=3.68D-05 NDo=     1
 LinEq1:  Iter=  9 NonCon=     1 RMS=6.48D-07 Max=8.86D-06 NDo=     1
 LinEq1:  Iter= 10 NonCon=     1 RMS=1.53D-07 Max=2.11D-06 NDo=     1
 LinEq1:  Iter= 11 NonCon=     1 RMS=3.18D-08 Max=4.13D-07 NDo=     1
 LinEq1:  Iter= 12 NonCon=     1 RMS=6.11D-09 Max=7.95D-08 NDo=     1
 LinEq1:  Iter= 13 NonCon=     1 RMS=1.23D-09 Max=1.92D-08 NDo=     1
 LinEq1:  Iter= 14 NonCon=     1 RMS=3.09D-10 Max=4.43D-09 NDo=     1
 LinEq1:  Iter= 15 NonCon=     0 RMS=6.26D-11 Max=9.27D-10 NDo=     1
 Linear equations converged to 1.000D-10 1.000D-09 after    15 iterations.
 End of Minotr F.D. properties file   721 does not exist.
 End of Minotr F.D. properties file   722 does not exist.
 End of Minotr F.D. properties file   788 does not exist.
   4 Symmetry operations used in ECPInt.
 ECPInt:  NShTT=     703 NPrTT=    3029 LenC2=     698 LenP2D=    2546.
 LDataN:  DoStor=T MaxTD1= 7 Len=  274
 Calling FoFJK, ICntrl=  10002127 FMM=F ISym2X=1 I1Cent= 0 IOpClX= 0 NMat=1 NMatS=1 NMatT=0.
 ***** Axes restored to original set *****
 -------------------------------------------------------------------
 Center     Atomic                   Forces (Hartrees/Bohr)
 Number     Number              X              Y              Z
 -------------------------------------------------------------------
      1       22          -0.005072614    0.000000000   -0.003486311
      2        8           0.003777827    0.000000000   -0.000063267
      3        8           0.001294787    0.000000000    0.003549578
 -------------------------------------------------------------------
 Cartesian Forces:  Max     0.005072614 RMS     0.002716978
 -----------------------------------------------------------------------------------------------
                       Internal Coordinate Forces (Hartree/Bohr or radian)
  Cent   Atom   N1       Length/X         N2         Alpha/Y        N3         Beta/Z          J
 -----------------------------------------------------------------------------------------------
      1  Ti
      2  O        1  -0.000063(     1)
      3  O        1  -0.000063(     2)      2  -0.012024(     3)
 -----------------------------------------------------------------------------------------------
 Internal  Forces:  Max     0.012023714 RMS     0.006942087

 GradGradGradGradGradGradGradGradGradGradGradGradGradGradGradGradGradGrad
 Berny optimization.
 Search for a local minimum.
 Step number   2 out of a maximum of   20
 All quantities printed in internal units (Hartrees-Bohrs-Radians)
 Update second derivatives using D2CorN and points    1    2
 DE= -6.75D-07 DEPred=-7.18D-07 R= 9.40D-01
 Trust test= 9.40D-01 RLast= 1.44D-03 DXMaxT set to 3.00D-01
 The second derivative matrix:
                          R1        A1
           R1           0.78310
           A1          -0.01240   0.25000
 ITU=  0  0
     Eigenvalues ---    0.783101000.00000
 RFO step:  Lambda= 0.00000000D+00 EMin= 7.83096687D-01
 Quartic linear search produced a step of -0.09650.
 Variable       Old X    -DE/DX   Delta X   Delta X   Delta X     New X
                                 (Linear)    (Quad)   (Total)
    R1        3.18271  -0.00013  -0.00014   0.00000  -0.00014   3.18257
    A1        1.93732  -0.01202   0.00000   0.00000   0.00000   1.93732
         Item               Value     Threshold  Converged?
 Maximum Force            0.000127     0.000450     YES
 RMS     Force            0.000127     0.000300     YES
 Maximum Displacement     0.000139     0.001800     YES
 RMS     Displacement     0.000098     0.001200     YES
 Predicted change in Energy=-1.001809D-08
 Optimization completed.
    -- Stationary point found.
                       ----------------------------
                       !   Optimized Parameters   !
                       ! (Angstroms and Degrees)  !
 ----------------------                            ----------------------
 !      Name          Value   Derivative information (Atomic Units)     !
 ------------------------------------------------------------------------
 !       R1          1.6842   -DE/DX =   -0.0001                        !
 !       A1        111.0      -DE/DX =   -0.012                         !
 ------------------------------------------------------------------------
 GradGradGradGradGradGradGradGradGradGradGradGradGradGradGradGradGradGrad

 ---------------------------------------------------------------------------------------------------
                            Z-MATRIX (ANGSTROMS AND DEGREES)
   CD    Cent   Atom    N1       Length/X        N2       Alpha/Y        N3        Beta/Z          J
 ---------------------------------------------------------------------------------------------------
      1      1  Ti
      2      2  O        1   1.684216(     1)
      3      3  O        1   1.684216(     2)      2  111.000(     3)
 ---------------------------------------------------------------------------------------------------
                         Z-Matrix orientation:                         
 ---------------------------------------------------------------------
 Center     Atomic      Atomic             Coordinates (Angstroms)
 Number     Number       Type             X           Y           Z
 ---------------------------------------------------------------------
      1         22           0        0.000000    0.000000    0.000000
      2          8           0        0.000000    0.000000    1.684216
      3          8           0        1.572351    0.000000   -0.603569
 ---------------------------------------------------------------------
                    Distance matrix (angstroms):
                    1          2          3
     1  Ti   0.000000
     2  O    1.684216   0.000000
     3  O    1.684216   2.776013   0.000000
 Stoichiometry    O2Ti
 Framework group  C2V[C2(Ti),SGV(O2)]
 Deg. of freedom     2
 Full point group                 C2V     NOp   4
 Largest Abelian subgroup         C2V     NOp   4
 Largest concise Abelian subgroup C2      NOp   2
                         Standard orientation:                         
 ---------------------------------------------------------------------
 Center     Atomic      Atomic             Coordinates (Angstroms)
 Number     Number       Type             X           Y           Z
 ---------------------------------------------------------------------
      1         22           0        0.000000    0.000000    0.401663
      2          8           0        0.000000    1.388006   -0.552287
      3          8           0        0.000000   -1.388006   -0.552287
 ---------------------------------------------------------------------
 Rotational constants (GHZ):          28.9424834           8.2001608           6.3897717

 **********************************************************************

            Population analysis using the SCF Density.

 **********************************************************************

 Orbital symmetries:
       Occupied  (A1) (A1) (A1) (B2) (A1) (B1) (B2) (A1) (B2) (A1)
                 (B1) (A1) (B2) (A1) (B2) (A2) (A1) (B1) (B2)
       Virtual   (A1) (B1) (A1) (B2) (A1) (A2) (B1) (A1) (A2) (A1)
                 (B2) (B1) (A1) (B2) (A1) (B2) (A1) (B1) (A2) (A1)
                 (B2) (A1) (B1) (B2) (A2) (A1) (B2) (A1) (B1) (A1)
                 (B2) (B1) (B2) (A2) (A1) (A1) (B1) (A2) (B2) (A1)
                 (B2) (B1) (A1) (A1) (A2) (B1) (B2) (A1) (B1) (B2)
                 (A1) (A2) (B2) (A1) (B1) (B2) (A2) (A1) (A1) (B2)
                 (A1) (B2) (A2) (B2) (A2) (B1) (A1) (B2) (A1) (B1)
                 (A1) (B1) (B2) (A2) (B2) (A1) (A2) (B2) (A1) (B1)
                 (B1) (B2) (A2) (A1) (A1) (B2) (A1) (B2)
 The electronic state is 1-A1.
 Alpha  occ. eigenvalues -- -183.41622 -21.59137 -20.51134 -20.51134 -17.95908
 Alpha  occ. eigenvalues --  -17.95782 -17.95756  -2.99993  -1.93433  -1.92897
 Alpha  occ. eigenvalues --   -1.92081  -1.16789  -1.15312  -0.49888  -0.48729
 Alpha  occ. eigenvalues --   -0.44877  -0.43627  -0.43096  -0.40635
 Alpha virt. eigenvalues --   -0.04077   0.04055   0.04568   0.08761   0.12331
 Alpha virt. eigenvalues --    0.13315   0.16587   0.16726   0.17281   0.18850
 Alpha virt. eigenvalues --    0.21311   0.21490   0.24169   0.29180   0.32803
 Alpha virt. eigenvalues --    0.61622   0.63202   0.65747   0.66184   0.69096
 Alpha virt. eigenvalues --    0.73452   0.75021   0.77008   0.78305   0.79076
 Alpha virt. eigenvalues --    0.81764   0.98923   1.01019   1.21572   1.35847
 Alpha virt. eigenvalues --    1.47740   1.53219   1.55614   1.56305   1.57033
 Alpha virt. eigenvalues --    1.58795   1.61190   1.82858   1.85748   1.90412
 Alpha virt. eigenvalues --    1.98708   2.02282   2.06537   2.13380   2.16285
 Alpha virt. eigenvalues --    2.20413   2.25468   2.33152   2.49836   2.51604
 Alpha virt. eigenvalues --    2.57883   2.58741   2.75703   2.78138   3.16257
 Alpha virt. eigenvalues --    3.18876   3.21002   3.23957   3.40960   3.41310
 Alpha virt. eigenvalues --    4.22225   4.37507   5.61719   5.62698   5.63259
 Alpha virt. eigenvalues --    5.63291   5.63372   5.63744   5.65195   5.67593
 Alpha virt. eigenvalues --    5.79575   5.79675   5.85146   5.85464   6.16796
 Alpha virt. eigenvalues --    6.18433   6.79737   6.82070   6.82615   6.83135
 Alpha virt. eigenvalues --    7.04298   7.04685   7.06462   7.13406   7.37780
 Alpha virt. eigenvalues --    7.55457  45.06752  45.09108
          Condensed to atoms (all electrons):
               1          2          3
     1  Ti  19.690919   0.383947   0.383947
     2  O    0.383947   8.381312   0.005335
     3  O    0.383947   0.005335   8.381312
 Mulliken charges:
               1
     1  Ti   1.541188
     2  O   -0.770594
     3  O   -0.770594
 Sum of Mulliken charges =   0.00000
 Mulliken charges with hydrogens summed into heavy atoms:
               1
     1  Ti   1.541188
     2  O   -0.770594
     3  O   -0.770594
 Electronic spatial extent (au):  <R**2>=            203.2766
 Charge=              0.0000 electrons
 Dipole moment (field-independent basis, Debye):
    X=              0.0000    Y=              0.0000    Z=              8.4652  Tot=              8.4652
 Quadrupole moment (field-independent basis, Debye-Ang):
   XX=            -22.5580   YY=            -39.6956   ZZ=            -22.6123
   XY=              0.0000   XZ=              0.0000   YZ=              0.0000
 Traceless Quadrupole moment (field-independent basis, Debye-Ang):
   XX=              5.7307   YY=            -11.4070   ZZ=              5.6763
   XY=              0.0000   XZ=              0.0000   YZ=              0.0000
 Octapole moment (field-independent basis, Debye-Ang**2):
  XXX=              0.0000  YYY=              0.0000  ZZZ=             14.8489  XYY=              0.0000
  XXY=              0.0000  XXZ=              4.7738  XZZ=              0.0000  YZZ=              0.0000
  YYZ=              9.1933  XYZ=              0.0000
 Hexadecapole moment (field-independent basis, Debye-Ang**3):
 XXXX=            -20.3747 YYYY=           -205.1150 ZZZZ=            -49.6969 XXXY=              0.0000
 XXXZ=              0.0000 YYYX=              0.0000 YYYZ=              0.0000 ZZZX=              0.0000
 ZZZY=              0.0000 XXYY=            -34.2176 XXZZ=            -11.4234 YYZZ=            -41.7467
 XXYZ=              0.0000 YYXZ=              0.0000 ZZXY=              0.0000
 N-N= 1.227976853830D+02 E-N=-2.612074551360D+03  KE= 9.976028253940D+02
 Symmetry A1   KE= 7.286927129074D+02
 Symmetry A2   KE= 4.211718522450D+00
 Symmetry B1   KE= 9.717367569530D+01
 Symmetry B2   KE= 1.675247182689D+02
 1|1|UNPC-DESKTOP-F4NP0R6|POpt|RMP2-FC|def2TZVP|O2Ti1|GARRETT|22-Jul-20
 18|1||# MP2 Def2TZVP opt=(noeigen,z-matrix) freq||TiO21a1||0,1|Ti|O,1,
 R1|O,1,R1,2,A1||R1=1.68421581|A1=111.||Version=EM64W-G16RevB.01|State=
 1-A1|HF=-998.1564708|MP2=-998.8618365|RMSD=5.011e-009|RMSF=2.717e-003|
 Dipole=-2.0898196,0.,-1.4362932|PG=C02V [C2(Ti1),SGV(O2)]||@


 IT IS A SIMPLE TASK TO MAKE THINGS COMPLEX,
 BUT A COMPLEX TASK TO MAKE THEM SIMPLE.
 Job cpu time:       0 days  0 hours  0 minutes 52.0 seconds.
 Elapsed time:       0 days  0 hours  0 minutes 33.9 seconds.
 File lengths (MBytes):  RWF=     10 Int=      0 D2E=      0 Chk=      2 Scr=      1
 Normal termination of Gaussian 16 at Sun Jul 22 16:11:15 2018.
 Link1:  Proceeding to internal job step number  2.
 ----------------------------------------------------------------------
 #N Geom=AllCheck Guess=TCheck SCRF=Check GenChk RMP2(FC)/def2TZVP Freq
 ----------------------------------------------------------------------
 1/10=4,11=1,29=7,30=1,38=1,40=1/1,3;
 2/12=2,40=1/2;
 3/5=44,7=101,11=1,14=-4,25=1,30=1,70=2,71=2,116=1,140=1/1,2,3;
 4/5=101/1;
 5/5=2,38=6,98=1/2;
 8/6=3,8=1,10=1,19=11,30=-1/1;
 9/15=3,16=-3/6;
 11/6=1,8=1,15=11,17=12,24=-1,27=1,28=-2,29=300,32=6,42=3/1,2,10;
 10/6=2,21=1/2;
 8/6=4,8=1,10=1,19=11,30=-1/11,4;
 10/5=1,20=4/2;
 11/12=2,14=11,16=1,17=2,28=-2,42=3,76=2/2,10,12;
 6/7=2,8=2,9=2,10=2/1;
 7/8=1,10=1,12=2,25=1,44=2/1,2,3,16;
 1/10=4,11=1,30=1/3;
 99//99;
 Structure from the checkpoint file:  "TiO21aHigher2.chk"
 -------
 TiO21a1
 -------
 Charge =  0 Multiplicity = 1
 Z-Matrix found in chk file.
 Ti
 O,1,R1
 O,1,R1,2,A1
      Variables:
 R1=1.68421581
      Constants:
 A1=111.
 Recover connectivity data from disk.

 GradGradGradGradGradGradGradGradGradGradGradGradGradGradGradGradGradGrad
 Berny optimization.
 Initialization pass.
                       ----------------------------
                       !    Initial Parameters    !
                       ! (Angstroms and Degrees)  !
 ----------------------                            ----------------------
 !      Name          Value   Derivative information (Atomic Units)     !
 ------------------------------------------------------------------------
 !       R1          1.6842   calculate D2E/DX2 analytically            !
 !       A1        111.0      frozen, calculate D2E/DX2 analytically    !
 ------------------------------------------------------------------------
 Trust Radius=3.00D-01 FncErr=1.00D-07 GrdErr=1.00D-07 EigMax=2.50D+02 EigMin=1.00D-04
 Number of steps in this run=      2 maximum allowed number of steps=      2.
 GradGradGradGradGradGradGradGradGradGradGradGradGradGradGradGradGradGrad

                          Input orientation:                          
 ---------------------------------------------------------------------
 Center     Atomic      Atomic             Coordinates (Angstroms)
 Number     Number       Type             X           Y           Z
 ---------------------------------------------------------------------
      1         22           0        0.000000    0.000000    0.000000
      2          8           0        0.000000    0.000000    1.684216
      3          8           0        1.572351    0.000000   -0.603569
 ---------------------------------------------------------------------
                    Distance matrix (angstroms):
                    1          2          3
     1  Ti   0.000000
     2  O    1.684216   0.000000
     3  O    1.684216   2.776013   0.000000
 Stoichiometry    O2Ti
 Framework group  C2V[C2(Ti),SGV(O2)]
 Deg. of freedom     2
 Full point group                 C2V     NOp   4
 Largest Abelian subgroup         C2V     NOp   4
 Largest concise Abelian subgroup C2      NOp   2
                         Standard orientation:                         
 ---------------------------------------------------------------------
 Center     Atomic      Atomic             Coordinates (Angstroms)
 Number     Number       Type             X           Y           Z
 ---------------------------------------------------------------------
      1         22           0        0.000000    0.000000    0.401663
      2          8           0        0.000000    1.388006   -0.552287
      3          8           0        0.000000   -1.388006   -0.552287
 ---------------------------------------------------------------------
 Rotational constants (GHZ):          28.9424834           8.2001608           6.3897717
 Standard basis: def2TZVP (5D, 7F)
 There are    50 symmetry adapted cartesian basis functions of A1  symmetry.
 There are    16 symmetry adapted cartesian basis functions of A2  symmetry.
 There are    22 symmetry adapted cartesian basis functions of B1  symmetry.
 There are    36 symmetry adapted cartesian basis functions of B2  symmetry.
 There are    41 symmetry adapted basis functions of A1  symmetry.
 There are    15 symmetry adapted basis functions of A2  symmetry.
 There are    20 symmetry adapted basis functions of B1  symmetry.
 There are    31 symmetry adapted basis functions of B2  symmetry.
   107 basis functions,   204 primitive gaussians,   124 cartesian basis functions
    19 alpha electrons       19 beta electrons
       nuclear repulsion energy       122.7976853830 Hartrees.
 NAtoms=    3 NActive=    3 NUniq=    2 SFac= 2.25D+00 NAtFMM=   60 NAOKFM=F Big=F
 Integral buffers will be    131072 words long.
 Raffenetti 1 integral format.
 Two-electron integral symmetry is turned on.
 One-electron integrals computed using PRISM.
   4 Symmetry operations used in ECPInt.
 ECPInt:  NShTT=     703 NPrTT=    3029 LenC2=     698 LenP2D=    2546.
 LDataN:  DoStor=T MaxTD1= 6 Len=  172
 NBasis=   107 RedAO= T EigKep=  3.51D-03  NBF=    41    15    20    31
 NBsUse=   107 1.00D-06 EigRej= -1.00D+00 NBFU=    41    15    20    31
 Initial guess from the checkpoint file:  "TiO21aHigher2.chk"
 B after Tr=     0.000000    0.000000    0.000000
         Rot=    1.000000    0.000000    0.000000    0.000000 Ang=   0.00 deg.
 Initial guess orbital symmetries:
       Occupied  (A1) (A1) (A1) (B2) (A1) (B1) (B2) (A1) (B2) (A1)
                 (B1) (A1) (B2) (A1) (B2) (A2) (A1) (B1) (B2)
       Virtual   (A1) (B1) (A1) (B2) (A1) (A2) (B1) (A1) (A2) (A1)
                 (B2) (B1) (A1) (B2) (A1) (B2) (A1) (B1) (A2) (A1)
                 (B2) (A1) (B1) (B2) (A2) (A1) (B2) (A1) (B1) (A1)
                 (B2) (B1) (B2) (A2) (A1) (A1) (B1) (A2) (B2) (A1)
                 (B2) (B1) (A1) (A1) (A2) (B1) (B2) (A1) (B1) (B2)
                 (A1) (A2) (B2) (A1) (B1) (B2) (A2) (A1) (A1) (B2)
                 (A1) (B2) (A2) (B2) (A2) (B1) (A1) (B2) (A1) (B1)
                 (A1) (B1) (B2) (A2) (B2) (A1) (A2) (B2) (A1) (B1)
                 (B1) (B2) (A2) (A1) (A1) (B2) (A1) (B2)
 Keep R1 ints in memory in symmetry-blocked form, NReq=20959436.
 Requested convergence on RMS density matrix=1.00D-08 within 128 cycles.
 Requested convergence on MAX density matrix=1.00D-06.
 Requested convergence on             energy=1.00D-06.
 No special actions if energy rises.
 SCF Done:  E(RHF) =  -998.156470785     A.U. after    1 cycles
            NFock=  1  Conv=0.75D-09     -V/T= 2.0006
 ExpMin= 3.27D-02 ExpMax= 2.12D+05 ExpMxC= 2.04D+03 IAcc=3 IRadAn=         5 AccDes= 0.00D+00
 HarFok:  IExCor=  205 AccDes= 0.00D+00 IRadAn=         5 IDoV=-2 UseB2=F ITyADJ=14
 ICtDFT= 12500011 ScaDFX=  1.000000  1.000000  1.000000  1.000000
 Range of M.O.s used for correlation:    12   107
 NBasis=   107 NAE=    19 NBE=    19 NFC=    11 NFV=     0
 NROrb=     96 NOA=     8 NOB=     8 NVA=    88 NVB=    88
 Disk-based method using ON**2 memory for  8 occupieds at a time.
 Permanent disk used for amplitudes=     3450172 words.
 Estimated scratch disk usage=    17063341 words.
 Actual    scratch disk usage=    17063341 words.
 JobTyp=1 Pass  1:  I=  12 to  19 NPSUse=  2 ParTrn=T ParDer=T DoDerP=T.
 (rs|ai) integrals will be sorted in core.
 Spin components of T(2) and E(2):
     alpha-alpha T2 =       0.4419137205D-01 E2=     -0.1031486911D+00
     alpha-beta  T2 =       0.1908942368D+00 E2=     -0.4990683573D+00
     beta-beta   T2 =       0.4419137205D-01 E2=     -0.1031486911D+00
 ANorm=    0.1131051272D+01
 E2 =    -0.7053657395D+00 EUMP2 =    -0.99886183652442D+03
   4 Symmetry operations used in ECPInt.
 ECPInt:  NShTT=     703 NPrTT=    3029 LenC2=     698 LenP2D=    2546.
 LDataN:  DoStor=T MaxTD1= 7 Len=  274
 G2DrvN: will do     4 centers at a time, making    1 passes.
 Calling FoFCou, ICntrl=  3107 FMM=F I1Cent=   0 AccDes= 0.00D+00.
 End of G2Drv F.D. properties file   721 does not exist.
 End of G2Drv F.D. properties file   722 does not exist.
 End of G2Drv F.D. properties file   788 does not exist.
          IDoAtm=111
          Differentiating once with respect to electric field.
                with respect to dipole field.
          Differentiating once with respect to nuclear coordinates.
 Keep R1 ints in memory in symmetry-blocked form, NReq=20960211.
          There are    12 degrees of freedom in the 1st order CPHF.  IDoFFX=6 NUNeed=    12.
      9 vectors produced by pass  0 Test12= 1.39D-14 8.33D-09 XBig12= 1.71D+01 1.71D+00.
 AX will form     9 AO Fock derivatives at one time.
      9 vectors produced by pass  1 Test12= 1.39D-14 8.33D-09 XBig12= 4.46D+00 7.46D-01.
      9 vectors produced by pass  2 Test12= 1.39D-14 8.33D-09 XBig12= 3.59D-01 1.87D-01.
      9 vectors produced by pass  3 Test12= 1.39D-14 8.33D-09 XBig12= 2.78D-02 7.07D-02.
      9 vectors produced by pass  4 Test12= 1.39D-14 8.33D-09 XBig12= 1.09D-03 9.70D-03.
      9 vectors produced by pass  5 Test12= 1.39D-14 8.33D-09 XBig12= 3.98D-05 2.62D-03.
      9 vectors produced by pass  6 Test12= 1.39D-14 8.33D-09 XBig12= 9.96D-07 2.98D-04.
      9 vectors produced by pass  7 Test12= 1.39D-14 8.33D-09 XBig12= 1.23D-08 2.86D-05.
      9 vectors produced by pass  8 Test12= 1.39D-14 8.33D-09 XBig12= 1.98D-10 7.91D-06.
      5 vectors produced by pass  9 Test12= 1.39D-14 8.33D-09 XBig12= 4.23D-12 8.96D-07.
      3 vectors produced by pass 10 Test12= 1.39D-14 8.33D-09 XBig12= 4.86D-14 6.67D-08.
 InvSVY:  IOpt=1 It=  1 EMax= 4.44D-16
 Solved reduced A of dimension    89 with     9 vectors.
 End of Minotr F.D. properties file   721 does not exist.
 End of Minotr F.D. properties file   722 does not exist.
 End of Minotr F.D. properties file   788 does not exist.
 MDV=   536870912.
 Form MO integral derivatives with frozen-active canonical formalism.
 Discarding MO integrals.
 Reordered first order wavefunction length =      5591168
 In DefCFB: NBatch=  1 ICI= 19 ICA= 88 LFMax= 44
            Large arrays: LIAPS=    88736384 LIARS=    75467392 words.
 Semi-Direct transformation.
 ModeAB=           4 MOrb=            19 LenV=     536411499
 LASXX=     10151206 LTotXX=    10151206 LenRXX=    20592162
 LTotAB=    10440956 MaxLAS=     9825489 LenRXY=           0
 NonZer=    30743368 LenScr=    46879232 LnRSAI=     9825489
 LnScr1=    15513600 LExtra=           0 Total=     92810483
 MaxDsk=          -1 SrtSym=           T ITran=            4
 JobTyp=0 Pass  1:  I=   1 to  19.
 (rs|ai) integrals will be sorted in core.
 Spin components of T(2) and E(2):
     alpha-alpha T2 =       0.4419137205D-01 E2=     -0.1031486911D+00
     alpha-beta  T2 =       0.1908942368D+00 E2=     -0.4990683573D+00
     beta-beta   T2 =       0.4419137205D-01 E2=     -0.1031486911D+00
 ANorm=    0.1599548049D+01
 E2 =    -0.7053657395D+00 EUMP2 =    -0.99886183652442D+03
          IDoAtm=111
          Differentiating once with respect to electric field.
                with respect to dipole field.
          Differentiating once with respect to nuclear coordinates.
          There are     1 degrees of freedom in the 1st order CPHF.  IDoFFX=0 NUNeed=     1.
 LinEq1:  Iter=  0 NonCon=     1 RMS=1.51D-02 Max=2.57D-01 NDo=     1
 LinEq1:  Iter=  1 NonCon=     1 RMS=8.04D-03 Max=8.93D-02 NDo=     1
 LinEq1:  Iter=  2 NonCon=     1 RMS=3.99D-03 Max=5.25D-02 NDo=     1
 LinEq1:  Iter=  3 NonCon=     1 RMS=1.78D-03 Max=2.03D-02 NDo=     1
 LinEq1:  Iter=  4 NonCon=     1 RMS=4.38D-04 Max=5.30D-03 NDo=     1
 LinEq1:  Iter=  5 NonCon=     1 RMS=1.28D-04 Max=1.72D-03 NDo=     1
 LinEq1:  Iter=  6 NonCon=     1 RMS=4.28D-05 Max=5.16D-04 NDo=     1
 LinEq1:  Iter=  7 NonCon=     1 RMS=1.23D-05 Max=1.67D-04 NDo=     1
 LinEq1:  Iter=  8 NonCon=     1 RMS=2.68D-06 Max=3.68D-05 NDo=     1
 LinEq1:  Iter=  9 NonCon=     1 RMS=6.48D-07 Max=8.86D-06 NDo=     1
 LinEq1:  Iter= 10 NonCon=     1 RMS=1.53D-07 Max=2.11D-06 NDo=     1
 LinEq1:  Iter= 11 NonCon=     1 RMS=3.18D-08 Max=4.13D-07 NDo=     1
 LinEq1:  Iter= 12 NonCon=     1 RMS=6.11D-09 Max=7.95D-08 NDo=     1
 LinEq1:  Iter= 13 NonCon=     1 RMS=1.23D-09 Max=1.92D-08 NDo=     1
 LinEq1:  Iter= 14 NonCon=     1 RMS=3.09D-10 Max=4.43D-09 NDo=     1
 LinEq1:  Iter= 15 NonCon=     0 RMS=6.26D-11 Max=9.27D-10 NDo=     1
 Linear equations converged to 1.000D-10 1.000D-09 after    15 iterations.
 End of Minotr F.D. properties file   721 does not exist.
 End of Minotr F.D. properties file   722 does not exist.
 End of Minotr F.D. properties file   788 does not exist.
 Symmetrizing basis deriv contribution to polar:
 IMax=3 JMax=2 DiffMx= 0.00D+00
 G2DrvN: will do     4 centers at a time, making    1 passes.
 Calling FoFCou, ICntrl=  3107 FMM=F I1Cent=   0 AccDes= 0.00D+00.
 End of G2Drv F.D. properties file   721 does not exist.
 End of G2Drv F.D. properties file   722 does not exist.
 End of G2Drv F.D. properties file   788 does not exist.
 R2 and R3 integrals will be kept in memory, NReq=    62010250.
 DD1Dir will call FoFMem   1 times, MxPair=       380
 NAB=   190 NAA=     0 NBB=     0.
 Discarding MO integrals.

 **********************************************************************

            Population analysis using the SCF Density.

 **********************************************************************

 Orbital symmetries:
       Occupied  (A1) (A1) (A1) (B2) (A1) (B1) (B2) (A1) (B2) (A1)
                 (B1) (A1) (B2) (A1) (B2) (A2) (A1) (B1) (B2)
       Virtual   (A1) (B1) (A1) (B2) (A1) (A2) (B1) (A1) (A2) (A1)
                 (B2) (B1) (A1) (B2) (A1) (B2) (A1) (B1) (A2) (A1)
                 (B2) (A1) (B1) (B2) (A2) (A1) (B2) (A1) (B1) (A1)
                 (B2) (B1) (B2) (A2) (A1) (A1) (B1) (A2) (B2) (A1)
                 (B2) (B1) (A1) (A1) (A2) (B1) (B2) (A1) (B1) (B2)
                 (A1) (A2) (B2) (A1) (B1) (B2) (A2) (A1) (A1) (B2)
                 (A1) (B2) (A2) (B2) (A2) (B1) (A1) (B2) (A1) (B1)
                 (A1) (B1) (B2) (A2) (B2) (A1) (A2) (B2) (A1) (B1)
                 (B1) (B2) (A2) (A1) (A1) (B2) (A1) (B2)
 The electronic state is 1-A1.
 Alpha  occ. eigenvalues -- -183.41622 -21.59137 -20.51134 -20.51134 -17.95908
 Alpha  occ. eigenvalues --  -17.95782 -17.95756  -2.99993  -1.93433  -1.92897
 Alpha  occ. eigenvalues --   -1.92081  -1.16789  -1.15312  -0.49888  -0.48729
 Alpha  occ. eigenvalues --   -0.44877  -0.43627  -0.43096  -0.40635
 Alpha virt. eigenvalues --   -0.04077   0.04055   0.04568   0.08761   0.12331
 Alpha virt. eigenvalues --    0.13315   0.16587   0.16726   0.17281   0.18850
 Alpha virt. eigenvalues --    0.21311   0.21490   0.24169   0.29180   0.32803
 Alpha virt. eigenvalues --    0.61622   0.63202   0.65747   0.66184   0.69096
 Alpha virt. eigenvalues --    0.73452   0.75021   0.77008   0.78305   0.79076
 Alpha virt. eigenvalues --    0.81764   0.98923   1.01019   1.21572   1.35847
 Alpha virt. eigenvalues --    1.47740   1.53219   1.55614   1.56305   1.57033
 Alpha virt. eigenvalues --    1.58795   1.61190   1.82858   1.85748   1.90412
 Alpha virt. eigenvalues --    1.98708   2.02282   2.06537   2.13380   2.16285
 Alpha virt. eigenvalues --    2.20413   2.25468   2.33152   2.49836   2.51604
 Alpha virt. eigenvalues --    2.57883   2.58741   2.75703   2.78138   3.16257
 Alpha virt. eigenvalues --    3.18876   3.21002   3.23957   3.40960   3.41310
 Alpha virt. eigenvalues --    4.22225   4.37507   5.61719   5.62698   5.63259
 Alpha virt. eigenvalues --    5.63291   5.63372   5.63744   5.65195   5.67593
 Alpha virt. eigenvalues --    5.79575   5.79675   5.85146   5.85464   6.16796
 Alpha virt. eigenvalues --    6.18433   6.79737   6.82070   6.82615   6.83135
 Alpha virt. eigenvalues --    7.04298   7.04685   7.06462   7.13406   7.37780
 Alpha virt. eigenvalues --    7.55457  45.06752  45.09108
          Condensed to atoms (all electrons):
               1          2          3
     1  Ti  19.690919   0.383947   0.383947
     2  O    0.383947   8.381312   0.005335
     3  O    0.383947   0.005335   8.381312
 Mulliken charges:
               1
     1  Ti   1.541188
     2  O   -0.770594
     3  O   -0.770594
 Sum of Mulliken charges =   0.00000
 Mulliken charges with hydrogens summed into heavy atoms:
               1
     1  Ti   1.541188
     2  O   -0.770594
     3  O   -0.770594
 APT charges:
               1
     1  Ti   1.408054
     2  O   -0.704027
     3  O   -0.704027
 Sum of APT charges =   0.00000
 APT charges with hydrogens summed into heavy atoms:
               1
     1  Ti   1.408054
     2  O   -0.704027
     3  O   -0.704027
 Electronic spatial extent (au):  <R**2>=            203.2766
 Charge=              0.0000 electrons
 Dipole moment (field-independent basis, Debye):
    X=              0.0000    Y=              0.0000    Z=              8.4652  Tot=              8.4652
 Quadrupole moment (field-independent basis, Debye-Ang):
   XX=            -22.5580   YY=            -39.6956   ZZ=            -22.6123
   XY=              0.0000   XZ=              0.0000   YZ=              0.0000
 Traceless Quadrupole moment (field-independent basis, Debye-Ang):
   XX=              5.7307   YY=            -11.4070   ZZ=              5.6763
   XY=              0.0000   XZ=              0.0000   YZ=              0.0000
 Octapole moment (field-independent basis, Debye-Ang**2):
  XXX=              0.0000  YYY=              0.0000  ZZZ=             14.8489  XYY=              0.0000
  XXY=              0.0000  XXZ=              4.7738  XZZ=              0.0000  YZZ=              0.0000
  YYZ=              9.1933  XYZ=              0.0000
 Hexadecapole moment (field-independent basis, Debye-Ang**3):
 XXXX=            -20.3747 YYYY=           -205.1150 ZZZZ=            -49.6969 XXXY=              0.0000
 XXXZ=              0.0000 YYYX=              0.0000 YYYZ=              0.0000 ZZZX=              0.0000
 ZZZY=              0.0000 XXYY=            -34.2176 XXZZ=            -11.4234 YYZZ=            -41.7467
 XXYZ=              0.0000 YYXZ=              0.0000 ZZXY=              0.0000
 N-N= 1.227976853830D+02 E-N=-2.612074551464D+03  KE= 9.976028254103D+02
 Symmetry A1   KE= 7.286927128949D+02
 Symmetry A2   KE= 4.211718544090D+00
 Symmetry B1   KE= 9.717367569366D+01
 Symmetry B2   KE= 1.675247182777D+02
  Exact polarizability:  19.918   0.000  59.102   0.000   0.000  27.263
 Approx polarizability:  16.584   0.000  43.450   0.000   0.000  28.874
   4 Symmetry operations used in ECPInt.
 ECPInt:  NShTT=     703 NPrTT=    3029 LenC2=     698 LenP2D=    2546.
 LDataN:  DoStor=T MaxTD1= 8 Len=  415
 Calling FoFJK, ICntrl=  10100127 FMM=F ISym2X=1 I1Cent= 0 IOpClX= 0 NMat=1 NMatS=1 NMatT=0.
 Full mass-weighted force constant matrix:
 Low frequencies ---  -68.5702   -0.0097   -0.0087    0.0072    5.5303   37.1502
 Low frequencies ---  309.4921  895.0663  944.9374
 Diagonal vibrational polarizability:
        0.0000000       8.1234777       2.0904734
 Harmonic frequencies (cm**-1), IR intensities (KM/Mole), Raman scattering
 activities (A**4/AMU), depolarization ratios for plane and unpolarized
 incident light, reduced masses (AMU), force constants (mDyne/A),
 and normal coordinates:
                      1                      2                      3
                     A1                     A1                     B2
 Frequencies --    309.4921               895.0663               944.9337
 Red. masses --     18.4484                18.4634                20.1907
 Frc consts  --      1.0411                 8.7151                10.6220
 IR Inten    --      6.8869                 4.6311               269.5327
  Atom  AN      X      Y      Z        X      Y      Z        X      Y      Z
     1  22     0.00   0.00  -0.28     0.00   0.00   0.28     0.00   0.36   0.00
     2   8     0.00   0.54   0.42     0.00   0.54  -0.42     0.00  -0.54   0.37
     3   8     0.00  -0.54   0.42     0.00  -0.54  -0.42     0.00  -0.54  -0.37

 -------------------
 - Thermochemistry -
 -------------------
 Temperature   298.150 Kelvin.  Pressure   1.00000 Atm.
 Atom     1 has atomic number 22 and mass  47.94795
 Atom     2 has atomic number  8 and mass  15.99491
 Atom     3 has atomic number  8 and mass  15.99491
 Molecular mass:    79.93778 amu.
 Principal axes and moments of inertia in atomic units:
                           1         2         3
     Eigenvalues --    62.35613 220.08607 282.44220
           X            0.00000   0.00000   1.00000
           Y            1.00000   0.00000   0.00000
           Z            0.00000   1.00000   0.00000
 This molecule is an asymmetric top.
 Rotational symmetry number  2.
 Rotational temperatures (Kelvin)      1.38902     0.39355     0.30666
 Rotational constants (GHZ):          28.94248     8.20016     6.38977
 Zero-point vibrational energy      12856.8 (Joules/Mol)
                                    3.07285 (Kcal/Mol)
 Warning -- explicit consideration of   1 degrees of freedom as
           vibrations may cause significant error
 Vibrational temperatures:    445.29  1287.80  1359.55
          (Kelvin)
 
 Zero-point correction=                           0.004897 (Hartree/Particle)
 Thermal correction to Energy=                    0.008238
 Thermal correction to Enthalpy=                  0.009183
 Thermal correction to Gibbs Free Energy=        -0.020358
 Sum of electronic and zero-point Energies=           -998.856940
 Sum of electronic and thermal Energies=              -998.853598
 Sum of electronic and thermal Enthalpies=            -998.852654
 Sum of electronic and thermal Free Energies=         -998.882195
 
                     E (Thermal)             CV                S
                      KCal/Mol        Cal/Mol-Kelvin    Cal/Mol-Kelvin
 Total                    5.170              8.566             62.173
 Electronic               0.000              0.000              0.000
 Translational            0.889              2.981             39.051
 Rotational               0.889              2.981             21.499
 Vibrational              3.392              2.604              1.624
 Vibration     1          0.699              1.656              1.365
                       Q            Log10(Q)             Ln(Q)
 Total Bot       0.231224D+10          9.364032         21.561481
 Total V=0       0.413475D+12         11.616450         26.747863
 Vib (Bot)       0.738642D-02         -2.131566         -4.908112
 Vib (Bot)    1  0.611157D+00         -0.213847         -0.492401
 Vib (V=0)       0.132084D+01          0.120851          0.278270
 Vib (V=0)    1  0.128963D+01          0.110465          0.254354
 Electronic      0.100000D+01          0.000000          0.000000
 Translational   0.280920D+08          7.448582         17.150994
 Rotational      0.111434D+05          4.047016          9.318599
 ***** Axes restored to original set *****
 -------------------------------------------------------------------
 Center     Atomic                   Forces (Hartrees/Bohr)
 Number     Number              X              Y              Z
 -------------------------------------------------------------------
      1       22          -0.005072614    0.000000000   -0.003486311
      2        8           0.003777828    0.000000000   -0.000063269
      3        8           0.001294786    0.000000000    0.003549580
 -------------------------------------------------------------------
 Cartesian Forces:  Max     0.005072614 RMS     0.002716979
 -----------------------------------------------------------------------------------------------
                       Internal Coordinate Forces (Hartree/Bohr or radian)
  Cent   Atom   N1       Length/X         N2         Alpha/Y        N3         Beta/Z          J
 -----------------------------------------------------------------------------------------------
      1  Ti
      2  O        1  -0.000063(     1)
      3  O        1  -0.000063(     2)      2  -0.012024(     3)
 -----------------------------------------------------------------------------------------------
 Internal  Forces:  Max     0.012023718 RMS     0.006942089

 GradGradGradGradGradGradGradGradGradGradGradGradGradGradGradGradGradGrad
 Berny optimization.
 Search for a local minimum.
 Step number   1 out of a maximum of    2
 All quantities printed in internal units (Hartrees-Bohrs-Radians)
 Second derivative matrix not updated -- analytic derivatives used.
 The second derivative matrix:
                          R1        A1
           R1           0.78137
           A1          -0.02475   0.21957
 ITU=  0
     Eigenvalues ---    0.781371000.00000
 Angle between quadratic step and forces=   0.00 degrees.
 Linear search not attempted -- first point.
 Variable       Old X    -DE/DX   Delta X   Delta X   Delta X     New X
                                 (Linear)    (Quad)   (Total)
    R1        3.18271  -0.00013   0.00000  -0.00016  -0.00016   3.18254
    A1        1.93732  -0.01202   0.00000   0.00000   0.00000   1.93732
         Item               Value     Threshold  Converged?
 Maximum Force            0.000127     0.000450     YES
 RMS     Force            0.000127     0.000300     YES
 Maximum Displacement     0.000162     0.001800     YES
 RMS     Displacement     0.000115     0.001200     YES
 Predicted change in Energy=-1.024604D-08
 Optimization completed.
    -- Stationary point found.
                       ----------------------------
                       !   Optimized Parameters   !
                       ! (Angstroms and Degrees)  !
 ----------------------                            ----------------------
 !      Name          Value   Derivative information (Atomic Units)     !
 ------------------------------------------------------------------------
 !       R1          1.6842   -DE/DX =   -0.0001                        !
 !       A1        111.0      -DE/DX =   -0.012                         !
 ------------------------------------------------------------------------
 GradGradGradGradGradGradGradGradGradGradGradGradGradGradGradGradGradGrad


 ----------------------------------------------------------------------

 Electric dipole moment (input orientation):
 (Debye = 10**-18 statcoulomb cm , SI units = C m)
                  (au)            (Debye)         (10**-30 SI)
   Tot        0.253580D+01      0.644536D+01      0.214994D+02
   x         -0.208982D+01     -0.531179D+01     -0.177182D+02
   y          0.000000D+00      0.000000D+00      0.000000D+00
   z         -0.143629D+01     -0.365069D+01     -0.121774D+02

 Dipole polarizability, Alpha (input orientation).
 (esu units = cm**3 , SI units = C**2 m**2 J**-1)
 Alpha(0;0):
               (au)            (10**-24 esu)      (10**-40 SI)
   iso        0.354278D+02      0.524986D+01      0.584125D+01
   aniso      0.360762D+02      0.534594D+01      0.594816D+01
   xx         0.374776D+02      0.555361D+01      0.617922D+01
   yx         0.000000D+00      0.000000D+00      0.000000D+00
   yy         0.199183D+02      0.295159D+01      0.328409D+01
   zx        -0.148619D+02     -0.220231D+01     -0.245040D+01
   zy         0.000000D+00      0.000000D+00      0.000000D+00
   zz         0.488875D+02      0.724438D+01      0.806046D+01

 ----------------------------------------------------------------------

 Dipole orientation:
    22          0.00000000          0.00000000          0.00000000
     8         -2.62295187          0.00000000         -1.80270487
     8          2.62295187          0.00000000         -1.80270487

 Electric dipole moment (dipole orientation):
 (Debye = 10**-18 statcoulomb cm , SI units = C m)
                  (au)            (Debye)         (10**-30 SI)
   Tot        0.253580D+01      0.644536D+01      0.214994D+02
   x          0.000000D+00      0.000000D+00      0.000000D+00
   y          0.000000D+00      0.000000D+00      0.000000D+00
   z          0.253580D+01      0.644536D+01      0.214994D+02

 Dipole polarizability, Alpha (dipole orientation).
 (esu units = cm**3 , SI units = C**2 m**2 J**-1)
 Alpha(0;0):
               (au)            (10**-24 esu)      (10**-40 SI)
   iso        0.354278D+02      0.524986D+01      0.584125D+01
   aniso      0.360762D+02      0.534594D+01      0.594816D+01
   xx         0.591018D+02      0.875798D+01      0.974457D+01
   yx         0.000000D+00      0.000000D+00      0.000000D+00
   yy         0.199183D+02      0.295159D+01      0.328409D+01
   zx         0.000000D+00      0.000000D+00      0.000000D+00
   zy         0.000000D+00      0.000000D+00      0.000000D+00
   zz         0.272633D+02      0.404000D+01      0.449511D+01

 ----------------------------------------------------------------------
 1|1|UNPC-DESKTOP-F4NP0R6|Freq|RMP2-FC|def2TZVP|O2Ti1|GARRETT|22-Jul-20
 18|1||#N Geom=AllCheck Guess=TCheck SCRF=Check GenChk RMP2(FC)/def2TZV
 P Freq||TiO21a1||0,1|Ti|O,1,R1|O,1,R1,2,A1||R1=1.68421581|A1=111.||Ver
 sion=EM64W-G16RevB.01|State=1-A1|HF=-998.1564708|MP2=-998.8618365|RMSD
 =7.479e-010|RMSF=2.717e-003|ZeroPoint=0.0048969|Thermal=0.0082384|Dipo
 le=-2.0898196,0.,-1.4362932|DipoleDeriv=1.0736794,0.,-0.8728878,0.,1.4
 066641,0.,-0.8728878,0.,1.7438199,-0.4008339,0.,0.2079006,0.,-0.703332
 1,0.,0.5605718,0.,-1.0079157,-0.6728455,0.,0.6649872,0.,-0.7033321,0.,
 0.312316,0.,-0.7359042|Polar=37.4775846,0.,19.9183061,-14.8619057,0.,4
 8.8874867|PG=C02V [C2(Ti1),SGV(O2)]|NImag=0||0.38323577,0.,-0.00341422
 ,-0.08280225,0.,0.44680537,-0.03309444,0.,-0.02391850,0.02169619,0.,0.
 00170711,0.,0.,-0.00043585,-0.01498215,0.,-0.38192613,0.00507543,0.,0.
 38156390,-0.35014133,0.,0.10672075,0.01139825,0.,0.00990672,0.33874308
 ,0.,0.00170711,0.,0.,-0.00127126,0.,0.,-0.00043585,0.09778439,0.,-0.06
 487924,0.01884308,0.,0.00036223,-0.11662747,0.,0.06451701||0.00507261,
 0.,0.00348631,-0.00377783,0.,0.00006327,-0.00129479,0.,-0.00354958|||@


 THERE ARE TWO THINGS THAT EVERYBODY THINKS THEY CAN DO BETTER THAN
 ANYONE ELSE - PUNCH THE FIRE, AND EDIT A DAILY PAPER.
 -- UNCLE ESEK, "CENTURY MAGAZINE", 1885
 Job cpu time:       0 days  0 hours  5 minutes 17.0 seconds.
 Elapsed time:       0 days  0 hours  5 minutes  0.7 seconds.
 File lengths (MBytes):  RWF=   1341 Int=      0 D2E=      0 Chk=      2 Scr=      1
 Normal termination of Gaussian 16 at Sun Jul 22 16:16:33 2018.
