 Entering Link 1 = C:\G16W\l1.exe PID=      3552.
  
 Copyright (c) 1988-2017, Gaussian, Inc.  All Rights Reserved.
  
 This is part of the Gaussian(R) 16 program.  It is based on
 the Gaussian(R) 09 system (copyright 2009, Gaussian, Inc.),
 the Gaussian(R) 03 system (copyright 2003, Gaussian, Inc.),
 the Gaussian(R) 98 system (copyright 1998, Gaussian, Inc.),
 the Gaussian(R) 94 system (copyright 1995, Gaussian, Inc.),
 the Gaussian 92(TM) system (copyright 1992, Gaussian, Inc.),
 the Gaussian 90(TM) system (copyright 1990, Gaussian, Inc.),
 the Gaussian 88(TM) system (copyright 1988, Gaussian, Inc.),
 the Gaussian 86(TM) system (copyright 1986, Carnegie Mellon
 University), and the Gaussian 82(TM) system (copyright 1983,
 Carnegie Mellon University). Gaussian is a federally registered
 trademark of Gaussian, Inc.
  
 This software contains proprietary and confidential information,
 including trade secrets, belonging to Gaussian, Inc.
  
 This software is provided under written license and may be
 used, copied, transmitted, or stored only in accord with that
 written license.
  
 The following legend is applicable only to US Government
 contracts under FAR:
  
                    RESTRICTED RIGHTS LEGEND
  
 Use, reproduction and disclosure by the US Government is
 subject to restrictions as set forth in subparagraphs (a)
 and (c) of the Commercial Computer Software - Restricted
 Rights clause in FAR 52.227-19.
  
 Gaussian, Inc.
 340 Quinnipiac St., Bldg. 40, Wallingford CT 06492
  
  
 ---------------------------------------------------------------
 Warning -- This program may not be used in any manner that
 competes with the business of Gaussian, Inc. or will provide
 assistance to any competitor of Gaussian, Inc.  The licensee
 of this program is prohibited from giving any competitor of
 Gaussian, Inc. access to this program.  By using this program,
 the user acknowledges that Gaussian, Inc. is engaged in the
 business of creating and licensing software in the field of
 computational chemistry and represents and warrants to the
 licensee that it is not a competitor of Gaussian, Inc. and that
 it will not use this program in any manner prohibited above.
 ---------------------------------------------------------------
  

 Cite this work as:
 Gaussian 16, Revision B.01,
 M. J. Frisch, G. W. Trucks, H. B. Schlegel, G. E. Scuseria, 
 M. A. Robb, J. R. Cheeseman, G. Scalmani, V. Barone, 
 G. A. Petersson, H. Nakatsuji, X. Li, M. Caricato, A. V. Marenich, 
 J. Bloino, B. G. Janesko, R. Gomperts, B. Mennucci, H. P. Hratchian, 
 J. V. Ortiz, A. F. Izmaylov, J. L. Sonnenberg, D. Williams-Young, 
 F. Ding, F. Lipparini, F. Egidi, J. Goings, B. Peng, A. Petrone, 
 T. Henderson, D. Ranasinghe, V. G. Zakrzewski, J. Gao, N. Rega, 
 G. Zheng, W. Liang, M. Hada, M. Ehara, K. Toyota, R. Fukuda, 
 J. Hasegawa, M. Ishida, T. Nakajima, Y. Honda, O. Kitao, H. Nakai, 
 T. Vreven, K. Throssell, J. A. Montgomery, Jr., J. E. Peralta, 
 F. Ogliaro, M. J. Bearpark, J. J. Heyd, E. N. Brothers, K. N. Kudin, 
 V. N. Staroverov, T. A. Keith, R. Kobayashi, J. Normand, 
 K. Raghavachari, A. P. Rendell, J. C. Burant, S. S. Iyengar, 
 J. Tomasi, M. Cossi, J. M. Millam, M. Klene, C. Adamo, R. Cammi, 
 J. W. Ochterski, R. L. Martin, K. Morokuma, O. Farkas, 
 J. B. Foresman, and D. J. Fox, Gaussian, Inc., Wallingford CT, 2016.
 
 ******************************************
 Gaussian 16:  EM64W-G16RevB.01 16-Dec-2017
                22-Jul-2018 
 ******************************************
 %nproc=2
 Will use up to    2 processors via shared memory.
 %mem=4gb
 %chk=TiO21aHigher1.7.chk
 ------------------------------------------
 # MP2 Def2TZVP opt=(noeigen,z-matrix) freq
 ------------------------------------------
 1/10=7,11=1,18=40,38=1/1,3;
 2/12=2,17=6,18=5,29=3,40=1/2;
 3/5=44,7=101,11=9,25=1,30=1,71=1/1,2,3;
 4//1;
 5/5=2,38=5/2;
 8/6=4,10=1/1;
 9/15=2,16=-3/6;
 10/5=1/2;
 6/7=2,8=2,9=2,10=2/1;
 7/12=2,29=1/1,2,3,16;
 1/10=7,11=1,18=40/3(2);
 2/29=3/2;
 99//99;
 2/29=3/2;
 3/5=44,7=101,11=9,25=1,30=1,71=1/1,2,3;
 4/5=5,16=3,69=1/1;
 5/5=2,38=5/2;
 8/6=4,10=1/1;
 9/15=2,16=-3/6;
 10/5=1/2;
 7/12=2/1,2,3,16;
 1/11=1,18=40/3(-8);
 2/29=3/2;
 6/7=2,8=2,9=2,10=2/1;
 99/9=10/99;
 -------
 TiO21a1
 -------
 Symbolic Z-matrix:
 Charge =  0 Multiplicity = 1
 Ti
 O                    1    R1
 O                    1    R2       2    A1
       Variables:
  R1                    1.68346                  
  A1                  107.96916                  
       Constants:
  R2                    1.75                     
 

 GradGradGradGradGradGradGradGradGradGradGradGradGradGradGradGradGradGrad
 Berny optimization.
 Initialization pass.
                       ----------------------------
                       !    Initial Parameters    !
                       ! (Angstroms and Degrees)  !
 ----------------------                            ----------------------
 !      Name          Value   Derivative information (Atomic Units)     !
 ------------------------------------------------------------------------
 !       R1          1.6835   estimate D2E/DX2                          !
 !       A1        107.9692   estimate D2E/DX2                          !
 !       R2          1.75     Frozen                                    !
 ------------------------------------------------------------------------
 Trust Radius=3.00D-01 FncErr=1.00D-07 GrdErr=1.00D-07 EigMax=2.50D+02 EigMin=1.00D-04
 Number of steps in this run=     20 maximum allowed number of steps=    100.
 GradGradGradGradGradGradGradGradGradGradGradGradGradGradGradGradGradGrad

 ---------------------------------------------------------------------------------------------------
                            Z-MATRIX (ANGSTROMS AND DEGREES)
   CD    Cent   Atom    N1       Length/X        N2       Alpha/Y        N3        Beta/Z          J
 ---------------------------------------------------------------------------------------------------
      1      1  Ti
      2      2  O        1   1.683455(     1)
      3      3  O        1   1.750000(     2)      2  107.969(     3)
 ---------------------------------------------------------------------------------------------------
                         Z-Matrix orientation:                         
 ---------------------------------------------------------------------
 Center     Atomic      Atomic             Coordinates (Angstroms)
 Number     Number       Type             X           Y           Z
 ---------------------------------------------------------------------
      1         22           0        0.000000    0.000000    0.000000
      2          8           0        0.000000    0.000000    1.683455
      3          8           0        1.664640    0.000000   -0.539884
 ---------------------------------------------------------------------
                    Distance matrix (angstroms):
                    1          2          3
     1  Ti   0.000000
     2  O    1.683455   0.000000
     3  O    1.750000   2.777456   0.000000
 Stoichiometry    O2Ti
 Framework group  CS[SG(O2Ti)]
 Deg. of freedom     3
 Full point group                 CS      NOp   2
 Largest Abelian subgroup         CS      NOp   2
 Largest concise Abelian subgroup C1      NOp   1
                         Standard orientation:                         
 ---------------------------------------------------------------------
 Center     Atomic      Atomic             Coordinates (Angstroms)
 Number     Number       Type             X           Y           Z
 ---------------------------------------------------------------------
      1         22           0        0.000000    0.425179    0.000000
      2          8           0        1.387575   -0.528055    0.000000
      3          8           0       -1.387575   -0.641186    0.000000
 ---------------------------------------------------------------------
 Rotational constants (GHZ):          25.8923913           8.1853415           6.2192537
 Standard basis: def2TZVP (5D, 7F)
 There are    86 symmetry adapted cartesian basis functions of A'  symmetry.
 There are    38 symmetry adapted cartesian basis functions of A"  symmetry.
 There are    72 symmetry adapted basis functions of A'  symmetry.
 There are    35 symmetry adapted basis functions of A"  symmetry.
   107 basis functions,   204 primitive gaussians,   124 cartesian basis functions
    19 alpha electrons       19 beta electrons
       nuclear repulsion energy       120.7375966795 Hartrees.
 NAtoms=    3 NActive=    3 NUniq=    3 SFac= 1.00D+00 NAtFMM=   60 NAOKFM=F Big=F
 Integral buffers will be    131072 words long.
 Raffenetti 1 integral format.
 Two-electron integral symmetry is turned on.
 One-electron integrals computed using PRISM.
   2 Symmetry operations used in ECPInt.
 ECPInt:  NShTT=     703 NPrTT=    3029 LenC2=     698 LenP2D=    2538.
 LDataN:  DoStor=T MaxTD1= 6 Len=  172
 NBasis=   107 RedAO= T EigKep=  3.57D-03  NBF=    72    35
 NBsUse=   107 1.00D-06 EigRej= -1.00D+00 NBFU=    72    35
 ExpMin= 3.27D-02 ExpMax= 2.12D+05 ExpMxC= 2.04D+03 IAcc=3 IRadAn=         5 AccDes= 0.00D+00
 Harris functional with IExCor=  205 and IRadAn=       5 diagonalized for initial guess.
 HarFok:  IExCor=  205 AccDes= 0.00D+00 IRadAn=         5 IDoV= 1 UseB2=F ITyADJ=14
 ICtDFT=  3500011 ScaDFX=  1.000000  1.000000  1.000000  1.000000
 FoFCou: FMM=F IPFlag=           0 FMFlag=      100000 FMFlg1=           0
         NFxFlg=           0 DoJE=T BraDBF=F KetDBF=T FulRan=T
         wScrn=  0.000000 ICntrl=       500 IOpCl=  0 I1Cent=   200000004 NGrid=           0
         NMat0=    1 NMatS0=      1 NMatT0=    0 NMatD0=    1 NMtDS0=    0 NMtDT0=    0
 Petite list used in FoFCou.
 Initial guess orbital symmetries:
       Occupied  (A') (A') (A') (A') (A') (A') (A") (A') (A') (A')
                 (A") (A') (A') (A') (A') (A") (A') (A") (A')
       Virtual   (A') (A") (A') (A") (A') (A') (A") (A') (A') (A")
                 (A") (A') (A') (A') (A') (A') (A') (A') (A") (A')
                 (A") (A") (A") (A') (A') (A') (A') (A') (A") (A')
                 (A') (A") (A') (A") (A') (A') (A") (A") (A') (A')
                 (A") (A') (A') (A') (A") (A") (A') (A') (A') (A")
                 (A') (A") (A') (A') (A") (A') (A") (A') (A') (A')
                 (A') (A') (A") (A") (A') (A') (A") (A') (A') (A")
                 (A") (A') (A') (A") (A') (A') (A") (A') (A') (A")
                 (A') (A") (A") (A') (A') (A') (A') (A')
 The electronic state of the initial guess is 1-A'.
 Keep R1 ints in memory in symmetry-blocked form, NReq=25194790.
 Requested convergence on RMS density matrix=1.00D-08 within 128 cycles.
 Requested convergence on MAX density matrix=1.00D-06.
 Requested convergence on             energy=1.00D-06.
 No special actions if energy rises.
 SCF Done:  E(RHF) =  -998.141575282     A.U. after   19 cycles
            NFock= 19  Conv=0.62D-08     -V/T= 2.0007
 ExpMin= 3.27D-02 ExpMax= 2.12D+05 ExpMxC= 2.04D+03 IAcc=3 IRadAn=         5 AccDes= 0.00D+00
 HarFok:  IExCor=  205 AccDes= 0.00D+00 IRadAn=         5 IDoV=-2 UseB2=F ITyADJ=14
 ICtDFT= 12500011 ScaDFX=  1.000000  1.000000  1.000000  1.000000
 Range of M.O.s used for correlation:    12   107
 NBasis=   107 NAE=    19 NBE=    19 NFC=    11 NFV=     0
 NROrb=     96 NOA=     8 NOB=     8 NVA=    88 NVB=    88
 Fully direct method using O(ONN) memory.
 JobTyp=1 Pass  1:  I=  12 to  19 NPSUse=  2 ParTrn=T ParDer=T DoDerP=T.
 Spin components of T(2) and E(2):
     alpha-alpha T2 =       0.4674906206D-01 E2=     -0.1051371483D+00
     alpha-beta  T2 =       0.2013454191D+00 E2=     -0.5076253265D+00
     beta-beta   T2 =       0.4674906206D-01 E2=     -0.1051371483D+00
 ANorm=    0.1137911922D+01
 E2 =    -0.7178996231D+00 EUMP2 =    -0.99885947490465D+03
          IDoAtm=111
          Differentiating once with respect to electric field.
                with respect to dipole field.
          Differentiating once with respect to nuclear coordinates.
 Keep R1 ints in memory in symmetry-blocked form, NReq=25195559.
          There are     1 degrees of freedom in the 1st order CPHF.  IDoFFX=0 NUNeed=     1.
 LinEq1:  Iter=  0 NonCon=     1 RMS=1.61D-02 Max=2.31D-01 NDo=     1
 AX will form     1 AO Fock derivatives at one time.
 LinEq1:  Iter=  1 NonCon=     1 RMS=8.94D-03 Max=9.23D-02 NDo=     1
 LinEq1:  Iter=  2 NonCon=     1 RMS=4.60D-03 Max=5.14D-02 NDo=     1
 LinEq1:  Iter=  3 NonCon=     1 RMS=2.09D-03 Max=2.32D-02 NDo=     1
 LinEq1:  Iter=  4 NonCon=     1 RMS=5.68D-04 Max=6.82D-03 NDo=     1
 LinEq1:  Iter=  5 NonCon=     1 RMS=2.04D-04 Max=2.80D-03 NDo=     1
 LinEq1:  Iter=  6 NonCon=     1 RMS=1.40D-04 Max=2.15D-03 NDo=     1
 LinEq1:  Iter=  7 NonCon=     1 RMS=6.76D-05 Max=9.66D-04 NDo=     1
 LinEq1:  Iter=  8 NonCon=     1 RMS=2.30D-05 Max=2.93D-04 NDo=     1
 LinEq1:  Iter=  9 NonCon=     1 RMS=5.96D-06 Max=6.53D-05 NDo=     1
 LinEq1:  Iter= 10 NonCon=     1 RMS=1.32D-06 Max=1.42D-05 NDo=     1
 LinEq1:  Iter= 11 NonCon=     1 RMS=3.18D-07 Max=4.56D-06 NDo=     1
 LinEq1:  Iter= 12 NonCon=     1 RMS=8.53D-08 Max=8.43D-07 NDo=     1
 LinEq1:  Iter= 13 NonCon=     1 RMS=2.53D-08 Max=2.73D-07 NDo=     1
 LinEq1:  Iter= 14 NonCon=     1 RMS=8.45D-09 Max=7.73D-08 NDo=     1
 LinEq1:  Iter= 15 NonCon=     1 RMS=2.44D-09 Max=2.98D-08 NDo=     1
 LinEq1:  Iter= 16 NonCon=     1 RMS=5.25D-10 Max=6.27D-09 NDo=     1
 LinEq1:  Iter= 17 NonCon=     1 RMS=1.21D-10 Max=1.43D-09 NDo=     1
 LinEq1:  Iter= 18 NonCon=     0 RMS=2.71D-11 Max=3.12D-10 NDo=     1
 Linear equations converged to 1.000D-10 1.000D-09 after    18 iterations.
 End of Minotr F.D. properties file   721 does not exist.
 End of Minotr F.D. properties file   722 does not exist.
 End of Minotr F.D. properties file   788 does not exist.

 **********************************************************************

            Population analysis using the SCF Density.

 **********************************************************************

 Orbital symmetries:
       Occupied  (A') (A') (A') (A') (A') (A") (A') (A') (A') (A')
                 (A") (A') (A') (A') (A') (A") (A') (A") (A')
       Virtual   (A') (A") (A') (A') (A") (A') (A") (A') (A") (A')
                 (A') (A") (A') (A') (A') (A') (A') (A") (A") (A')
                 (A') (A') (A") (A') (A") (A') (A') (A') (A") (A')
                 (A') (A") (A') (A") (A') (A') (A") (A") (A') (A')
                 (A') (A") (A') (A') (A") (A") (A') (A') (A') (A")
                 (A") (A') (A') (A') (A") (A') (A") (A') (A') (A')
                 (A') (A') (A") (A') (A") (A') (A") (A') (A') (A")
                 (A") (A') (A') (A") (A') (A') (A") (A') (A") (A')
                 (A') (A") (A") (A') (A') (A') (A') (A')
 The electronic state is 1-A'.
 Alpha  occ. eigenvalues -- -183.43112 -21.60552 -20.52217 -20.50544 -17.97322
 Alpha  occ. eigenvalues --  -17.97212 -17.97177  -3.00975  -1.94185  -1.93338
 Alpha  occ. eigenvalues --   -1.93099  -1.17019  -1.14697  -0.49384  -0.48310
 Alpha  occ. eigenvalues --   -0.44942  -0.43434  -0.41660  -0.39949
 Alpha virt. eigenvalues --   -0.04465   0.03449   0.03977   0.07857   0.11732
 Alpha virt. eigenvalues --    0.12100   0.16057   0.16267   0.17141   0.18582
 Alpha virt. eigenvalues --    0.20531   0.21250   0.22532   0.29080   0.32963
 Alpha virt. eigenvalues --    0.60765   0.62811   0.65478   0.65632   0.68560
 Alpha virt. eigenvalues --    0.73314   0.74932   0.77013   0.78420   0.79237
 Alpha virt. eigenvalues --    0.81419   0.98993   1.01379   1.21020   1.35231
 Alpha virt. eigenvalues --    1.45231   1.53035   1.54238   1.55330   1.57448
 Alpha virt. eigenvalues --    1.58181   1.59998   1.82752   1.85940   1.89743
 Alpha virt. eigenvalues --    1.96318   2.01260   2.02870   2.13744   2.16116
 Alpha virt. eigenvalues --    2.18759   2.22510   2.31074   2.46639   2.46662
 Alpha virt. eigenvalues --    2.56021   2.56376   2.73363   2.76128   3.15384
 Alpha virt. eigenvalues --    3.16367   3.19519   3.23687   3.40011   3.40796
 Alpha virt. eigenvalues --    4.12787   4.32232   5.61938   5.62413   5.62479
 Alpha virt. eigenvalues --    5.62981   5.64859   5.64996   5.65345   5.67369
 Alpha virt. eigenvalues --    5.77679   5.78817   5.81657   5.83356   6.08607
 Alpha virt. eigenvalues --    6.15795   6.79545   6.81464   6.82852   6.82920
 Alpha virt. eigenvalues --    7.01650   7.02414   7.04851   7.12160   7.35967
 Alpha virt. eigenvalues --    7.52628  45.01825  45.07126
          Condensed to atoms (all electrons):
               1          2          3
     1  Ti  19.683138   0.387548   0.399074
     2  O    0.387548   8.356726   0.000482
     3  O    0.399074   0.000482   8.385927
 Mulliken charges:
               1
     1  Ti   1.530241
     2  O   -0.744757
     3  O   -0.785484
 Sum of Mulliken charges =   0.00000
 Mulliken charges with hydrogens summed into heavy atoms:
               1
     1  Ti   1.530241
     2  O   -0.744757
     3  O   -0.785484
 Electronic spatial extent (au):  <R**2>=            207.2343
 Charge=              0.0000 electrons
 Dipole moment (field-independent basis, Debye):
    X=              0.3301    Y=              8.8645    Z=              0.0000  Tot=              8.8707
 Quadrupole moment (field-independent basis, Debye-Ang):
   XX=            -39.7563   YY=            -22.6956   ZZ=            -22.7036
   XY=             -0.7744   XZ=              0.0000   YZ=              0.0000
 Traceless Quadrupole moment (field-independent basis, Debye-Ang):
   XX=            -11.3712   YY=              5.6896   ZZ=              5.6816
   XY=             -0.7744   XZ=              0.0000   YZ=              0.0000
 Octapole moment (field-independent basis, Debye-Ang**2):
  XXX=              1.4290  YYY=             15.7298  ZZZ=              0.0000  XYY=              0.8213
  XXY=              9.5792  XXZ=              0.0000  XZZ=              0.3218  YZZ=              5.0159
  YYZ=              0.0000  XYZ=              0.0000
 Hexadecapole moment (field-independent basis, Debye-Ang**3):
 XXXX=           -205.8179 YYYY=            -53.9945 ZZZZ=            -20.7698 XXXY=             -4.6799
 XXXZ=              0.0000 YYYX=             -4.0418 YYYZ=              0.0000 ZZZX=              0.0000
 ZZZY=              0.0000 XXYY=            -42.8133 XXZZ=            -34.4460 YYZZ=            -12.1672
 XXYZ=              0.0000 YYXZ=              0.0000 ZZXY=             -1.2001
 N-N= 1.207375966795D+02 E-N=-2.607587232173D+03  KE= 9.974114521619D+02
 Symmetry A'   KE= 8.960325963356D+02
 Symmetry A"   KE= 1.013788558263D+02
   2 Symmetry operations used in ECPInt.
 ECPInt:  NShTT=     703 NPrTT=    3029 LenC2=     698 LenP2D=    2538.
 LDataN:  DoStor=T MaxTD1= 7 Len=  274
 Calling FoFJK, ICntrl=  10002127 FMM=F ISym2X=1 I1Cent= 0 IOpClX= 0 NMat=1 NMatS=1 NMatT=0.
 ***** Axes restored to original set *****
 -------------------------------------------------------------------
 Center     Atomic                   Forces (Hartrees/Bohr)
 Number     Number              X              Y              Z
 -------------------------------------------------------------------
      1       22           0.038497551    0.000000000   -0.011605358
      2        8          -0.000185567    0.000000000   -0.000632497
      3        8          -0.038311984    0.000000000    0.012237855
 -------------------------------------------------------------------
 Cartesian Forces:  Max     0.038497551 RMS     0.018958298
 -----------------------------------------------------------------------------------------------
                       Internal Coordinate Forces (Hartree/Bohr or radian)
  Cent   Atom   N1       Length/X         N2         Alpha/Y        N3         Beta/Z          J
 -----------------------------------------------------------------------------------------------
      1  Ti
      2  O        1  -0.000632(     1)
      3  O        1  -0.040219(     2)      2   0.000590(     3)
 -----------------------------------------------------------------------------------------------
 Internal  Forces:  Max     0.040218669 RMS     0.023225632

 GradGradGradGradGradGradGradGradGradGradGradGradGradGradGradGradGradGrad
 Berny optimization.
 Search for a local minimum.
 Step number   1 out of a maximum of   20
 All quantities printed in internal units (Hartrees-Bohrs-Radians)
 Second derivative matrix not updated -- first step.
 The second derivative matrix:
                          R1        A1        R2
           R1           0.34754
           A1           0.00000   0.25000
           R2           0.00000   0.00000   0.28085
 ITU=  0
     Eigenvalues ---    0.25000   0.347541000.00000
 RFO step:  Lambda=-2.54511448D-06 EMin= 2.50000000D-01
 Linear search not attempted -- first point.
 Variable       Old X    -DE/DX   Delta X   Delta X   Delta X     New X
                                 (Linear)    (Quad)   (Total)
    R1        3.18127  -0.00063   0.00000  -0.00182  -0.00182   3.17945
    A1        1.88442   0.00059   0.00000   0.00236   0.00236   1.88678
    R2        3.30702  -0.04022   0.00000   0.00000   0.00000   3.30702
         Item               Value     Threshold  Converged?
 Maximum Force            0.000632     0.000450     NO 
 RMS     Force            0.000612     0.000300     NO 
 Maximum Displacement     0.002361     0.001800     NO 
 RMS     Displacement     0.001721     0.001200     NO 
 Predicted change in Energy=-1.272557D-06
 GradGradGradGradGradGradGradGradGradGradGradGradGradGradGradGradGradGrad

 ---------------------------------------------------------------------------------------------------
                            Z-MATRIX (ANGSTROMS AND DEGREES)
   CD    Cent   Atom    N1       Length/X        N2       Alpha/Y        N3        Beta/Z          J
 ---------------------------------------------------------------------------------------------------
      1      1  Ti
      2      2  O        1   1.682492(     1)
      3      3  O        1   1.750000(     2)      2  108.104(     3)
 ---------------------------------------------------------------------------------------------------
                         Z-Matrix orientation:                         
 ---------------------------------------------------------------------
 Center     Atomic      Atomic             Coordinates (Angstroms)
 Number     Number       Type             X           Y           Z
 ---------------------------------------------------------------------
      1         22           0        0.000000    0.000000    0.000000
      2          8           0        0.000000    0.000000    1.682492
      3          8           0        1.663360    0.000000   -0.543813
 ---------------------------------------------------------------------
                    Distance matrix (angstroms):
                    1          2          3
     1  Ti   0.000000
     2  O    1.682492   0.000000
     3  O    1.750000   2.779065   0.000000
 Stoichiometry    O2Ti
 Framework group  CS[SG(O2Ti)]
 Deg. of freedom     3
 Full point group                 CS      NOp   2
 Largest Abelian subgroup         CS      NOp   2
 Largest concise Abelian subgroup C1      NOp   1
                         Standard orientation:                         
 ---------------------------------------------------------------------
 Center     Atomic      Atomic             Coordinates (Angstroms)
 Number     Number       Type             X           Y           Z
 ---------------------------------------------------------------------
      1         22           0        0.000000    0.424374    0.000000
      2          8           0        1.388343   -0.526038    0.000000
      3          8           0       -1.388343   -0.640991    0.000000
 ---------------------------------------------------------------------
 Rotational constants (GHZ):          25.9925010           8.1757164           6.2194441
 Standard basis: def2TZVP (5D, 7F)
 There are    86 symmetry adapted cartesian basis functions of A'  symmetry.
 There are    38 symmetry adapted cartesian basis functions of A"  symmetry.
 There are    72 symmetry adapted basis functions of A'  symmetry.
 There are    35 symmetry adapted basis functions of A"  symmetry.
   107 basis functions,   204 primitive gaussians,   124 cartesian basis functions
    19 alpha electrons       19 beta electrons
       nuclear repulsion energy       120.7622046833 Hartrees.
 NAtoms=    3 NActive=    3 NUniq=    3 SFac= 1.00D+00 NAtFMM=   60 NAOKFM=F Big=F
 Integral buffers will be    131072 words long.
 Raffenetti 1 integral format.
 Two-electron integral symmetry is turned on.
 One-electron integrals computed using PRISM.
   2 Symmetry operations used in ECPInt.
 ECPInt:  NShTT=     703 NPrTT=    3029 LenC2=     698 LenP2D=    2538.
 LDataN:  DoStor=T MaxTD1= 6 Len=  172
 NBasis=   107 RedAO= T EigKep=  3.57D-03  NBF=    72    35
 NBsUse=   107 1.00D-06 EigRej= -1.00D+00 NBFU=    72    35
 Initial guess from the checkpoint file:  "TiO21aHigher1.7.chk"
 B after Tr=     0.000000    0.000000    0.000000
         Rot=    1.000000    0.000000    0.000000   -0.000242 Ang=  -0.03 deg.
 Initial guess orbital symmetries:
       Occupied  (A') (A') (A') (A') (A') (A") (A') (A') (A') (A')
                 (A") (A') (A') (A') (A') (A") (A') (A") (A')
       Virtual   (A') (A") (A') (A') (A") (A') (A") (A') (A") (A')
                 (A') (A") (A') (A') (A') (A') (A') (A") (A") (A')
                 (A') (A') (A") (A') (A") (A') (A') (A') (A") (A')
                 (A') (A") (A') (A") (A') (A') (A") (A") (A') (A')
                 (A') (A") (A') (A') (A") (A") (A') (A') (A') (A")
                 (A") (A') (A') (A') (A") (A') (A") (A') (A') (A')
                 (A') (A') (A") (A') (A") (A') (A") (A') (A') (A")
                 (A") (A') (A') (A") (A') (A') (A") (A') (A") (A')
                 (A') (A") (A") (A') (A') (A') (A') (A')
 Keep R1 ints in memory in symmetry-blocked form, NReq=25194790.
 Requested convergence on RMS density matrix=1.00D-08 within 128 cycles.
 Requested convergence on MAX density matrix=1.00D-06.
 Requested convergence on             energy=1.00D-06.
 No special actions if energy rises.
 SCF Done:  E(RHF) =  -998.141871337     A.U. after   13 cycles
            NFock= 13  Conv=0.49D-08     -V/T= 2.0007
 ExpMin= 3.27D-02 ExpMax= 2.12D+05 ExpMxC= 2.04D+03 IAcc=3 IRadAn=         5 AccDes= 0.00D+00
 HarFok:  IExCor=  205 AccDes= 0.00D+00 IRadAn=         5 IDoV=-2 UseB2=F ITyADJ=14
 ICtDFT= 12500011 ScaDFX=  1.000000  1.000000  1.000000  1.000000
 Range of M.O.s used for correlation:    12   107
 NBasis=   107 NAE=    19 NBE=    19 NFC=    11 NFV=     0
 NROrb=     96 NOA=     8 NOB=     8 NVA=    88 NVB=    88
 Fully direct method using O(ONN) memory.
 JobTyp=1 Pass  1:  I=  12 to  19 NPSUse=  2 ParTrn=T ParDer=T DoDerP=T.
 Spin components of T(2) and E(2):
     alpha-alpha T2 =       0.4669282721D-01 E2=     -0.1050880246D+00
     alpha-beta  T2 =       0.2011230637D+00 E2=     -0.5074288159D+00
     beta-beta   T2 =       0.4669282721D-01 E2=     -0.1050880246D+00
 ANorm=    0.1137764790D+01
 E2 =    -0.7176048651D+00 EUMP2 =    -0.99885947620206D+03
          IDoAtm=111
          Differentiating once with respect to electric field.
                with respect to dipole field.
          Differentiating once with respect to nuclear coordinates.
 Keep R1 ints in memory in symmetry-blocked form, NReq=25195559.
          There are     1 degrees of freedom in the 1st order CPHF.  IDoFFX=0 NUNeed=     1.
 LinEq1:  Iter=  0 NonCon=     1 RMS=1.60D-02 Max=2.30D-01 NDo=     1
 AX will form     1 AO Fock derivatives at one time.
 LinEq1:  Iter=  1 NonCon=     1 RMS=8.92D-03 Max=9.20D-02 NDo=     1
 LinEq1:  Iter=  2 NonCon=     1 RMS=4.58D-03 Max=5.12D-02 NDo=     1
 LinEq1:  Iter=  3 NonCon=     1 RMS=2.08D-03 Max=2.31D-02 NDo=     1
 LinEq1:  Iter=  4 NonCon=     1 RMS=5.65D-04 Max=6.81D-03 NDo=     1
 LinEq1:  Iter=  5 NonCon=     1 RMS=2.04D-04 Max=2.77D-03 NDo=     1
 LinEq1:  Iter=  6 NonCon=     1 RMS=1.40D-04 Max=2.14D-03 NDo=     1
 LinEq1:  Iter=  7 NonCon=     1 RMS=6.72D-05 Max=9.60D-04 NDo=     1
 LinEq1:  Iter=  8 NonCon=     1 RMS=2.28D-05 Max=2.89D-04 NDo=     1
 LinEq1:  Iter=  9 NonCon=     1 RMS=5.91D-06 Max=6.48D-05 NDo=     1
 LinEq1:  Iter= 10 NonCon=     1 RMS=1.31D-06 Max=1.40D-05 NDo=     1
 LinEq1:  Iter= 11 NonCon=     1 RMS=3.16D-07 Max=4.54D-06 NDo=     1
 LinEq1:  Iter= 12 NonCon=     1 RMS=8.48D-08 Max=8.38D-07 NDo=     1
 LinEq1:  Iter= 13 NonCon=     1 RMS=2.52D-08 Max=2.71D-07 NDo=     1
 LinEq1:  Iter= 14 NonCon=     1 RMS=8.43D-09 Max=7.76D-08 NDo=     1
 LinEq1:  Iter= 15 NonCon=     1 RMS=2.43D-09 Max=2.98D-08 NDo=     1
 LinEq1:  Iter= 16 NonCon=     1 RMS=5.20D-10 Max=6.21D-09 NDo=     1
 LinEq1:  Iter= 17 NonCon=     1 RMS=1.20D-10 Max=1.42D-09 NDo=     1
 LinEq1:  Iter= 18 NonCon=     0 RMS=2.69D-11 Max=3.10D-10 NDo=     1
 Linear equations converged to 1.000D-10 1.000D-09 after    18 iterations.
 End of Minotr F.D. properties file   721 does not exist.
 End of Minotr F.D. properties file   722 does not exist.
 End of Minotr F.D. properties file   788 does not exist.
   2 Symmetry operations used in ECPInt.
 ECPInt:  NShTT=     703 NPrTT=    3029 LenC2=     698 LenP2D=    2538.
 LDataN:  DoStor=T MaxTD1= 7 Len=  274
 Calling FoFJK, ICntrl=  10002127 FMM=F ISym2X=1 I1Cent= 0 IOpClX= 0 NMat=1 NMatS=1 NMatT=0.
 ***** Axes restored to original set *****
 -------------------------------------------------------------------
 Center     Atomic                   Forces (Hartrees/Bohr)
 Number     Number              X              Y              Z
 -------------------------------------------------------------------
      1       22           0.038240083    0.000000000   -0.012538009
      2        8          -0.000019651    0.000000000    0.000062230
      3        8          -0.038220432    0.000000000    0.012475779
 -------------------------------------------------------------------
 Cartesian Forces:  Max     0.038240083 RMS     0.018961822
 -----------------------------------------------------------------------------------------------
                       Internal Coordinate Forces (Hartree/Bohr or radian)
  Cent   Atom   N1       Length/X         N2         Alpha/Y        N3         Beta/Z          J
 -----------------------------------------------------------------------------------------------
      1  Ti
      2  O        1   0.000062(     1)
      3  O        1  -0.040205(     2)      2   0.000062(     3)
 -----------------------------------------------------------------------------------------------
 Internal  Forces:  Max     0.040205051 RMS     0.023212453

 GradGradGradGradGradGradGradGradGradGradGradGradGradGradGradGradGradGrad
 Berny optimization.
 Search for a local minimum.
 Step number   2 out of a maximum of   20
 All quantities printed in internal units (Hartrees-Bohrs-Radians)
 Update second derivatives using D2CorN and points    1    2
 DE= -1.30D-06 DEPred=-1.27D-06 R= 1.02D+00
 TightC=F SS=  1.41D+00  RLast= 2.98D-03 DXNew= 5.0454D-01 8.9439D-03
 Trust test= 1.02D+00 RLast= 2.98D-03 DXMaxT set to 3.00D-01
 The second derivative matrix:
                          R1        A1        R2
           R1           0.36028
           A1          -0.00187   0.23341
           R2           0.00139  -0.00181   0.28085
 ITU=  1  0
     Eigenvalues ---    0.23338   0.360311000.00000
 RFO step:  Lambda=-2.74946522D-08 EMin= 2.33381167D-01
 Quartic linear search produced a step of  0.01338.
 Variable       Old X    -DE/DX   Delta X   Delta X   Delta X     New X
                                 (Linear)    (Quad)   (Total)
    R1        3.17945   0.00006  -0.00002   0.00020   0.00018   3.17962
    A1        1.88678   0.00006   0.00003   0.00024   0.00027   1.88705
    R2        3.30702  -0.04021   0.00000   0.00000   0.00000   3.30702
         Item               Value     Threshold  Converged?
 Maximum Force            0.000062     0.000450     YES
 RMS     Force            0.000062     0.000300     YES
 Maximum Displacement     0.000270     0.001800     YES
 RMS     Displacement     0.000186     0.001200     YES
 Predicted change in Energy=-1.381688D-08
 Optimization completed.
    -- Stationary point found.
                       ----------------------------
                       !   Optimized Parameters   !
                       ! (Angstroms and Degrees)  !
 ----------------------                            ----------------------
 !      Name          Value   Derivative information (Atomic Units)     !
 ------------------------------------------------------------------------
 !       R1          1.6825   -DE/DX =    0.0001                        !
 !       A1        108.1044   -DE/DX =    0.0001                        !
 !       R2          1.75     -DE/DX =   -0.0402                        !
 ------------------------------------------------------------------------
 GradGradGradGradGradGradGradGradGradGradGradGradGradGradGradGradGradGrad

 ---------------------------------------------------------------------------------------------------
                            Z-MATRIX (ANGSTROMS AND DEGREES)
   CD    Cent   Atom    N1       Length/X        N2       Alpha/Y        N3        Beta/Z          J
 ---------------------------------------------------------------------------------------------------
      1      1  Ti
      2      2  O        1   1.682492(     1)
      3      3  O        1   1.750000(     2)      2  108.104(     3)
 ---------------------------------------------------------------------------------------------------
                         Z-Matrix orientation:                         
 ---------------------------------------------------------------------
 Center     Atomic      Atomic             Coordinates (Angstroms)
 Number     Number       Type             X           Y           Z
 ---------------------------------------------------------------------
      1         22           0        0.000000    0.000000    0.000000
      2          8           0        0.000000    0.000000    1.682492
      3          8           0        1.663360    0.000000   -0.543813
 ---------------------------------------------------------------------
                    Distance matrix (angstroms):
                    1          2          3
     1  Ti   0.000000
     2  O    1.682492   0.000000
     3  O    1.750000   2.779065   0.000000
 Stoichiometry    O2Ti
 Framework group  CS[SG(O2Ti)]
 Deg. of freedom     3
 Full point group                 CS      NOp   2
 Largest Abelian subgroup         CS      NOp   2
 Largest concise Abelian subgroup C1      NOp   1
                         Standard orientation:                         
 ---------------------------------------------------------------------
 Center     Atomic      Atomic             Coordinates (Angstroms)
 Number     Number       Type             X           Y           Z
 ---------------------------------------------------------------------
      1         22           0        0.000000    0.424374    0.000000
      2          8           0        1.388343   -0.526038    0.000000
      3          8           0       -1.388343   -0.640991    0.000000
 ---------------------------------------------------------------------
 Rotational constants (GHZ):          25.9925010           8.1757164           6.2194441

 **********************************************************************

            Population analysis using the SCF Density.

 **********************************************************************

 Orbital symmetries:
       Occupied  (A') (A') (A') (A') (A') (A") (A') (A') (A') (A')
                 (A") (A') (A') (A') (A') (A") (A') (A") (A')
       Virtual   (A') (A") (A') (A') (A") (A') (A") (A') (A") (A')
                 (A') (A") (A') (A') (A') (A') (A') (A") (A") (A')
                 (A') (A') (A") (A') (A") (A') (A') (A') (A") (A')
                 (A') (A") (A') (A") (A') (A') (A") (A") (A') (A')
                 (A') (A") (A') (A') (A") (A") (A') (A') (A") (A')
                 (A") (A') (A') (A') (A") (A') (A") (A') (A') (A')
                 (A') (A') (A") (A') (A") (A') (A") (A') (A') (A")
                 (A") (A') (A') (A") (A') (A') (A") (A') (A") (A')
                 (A') (A") (A") (A') (A') (A') (A') (A')
 The electronic state is 1-A'.
 Alpha  occ. eigenvalues -- -183.43095 -21.60538 -20.52231 -20.50532 -17.97308
 Alpha  occ. eigenvalues --  -17.97198 -17.97163  -3.00969  -1.94192  -1.93331
 Alpha  occ. eigenvalues --   -1.93092  -1.17043  -1.14691  -0.49414  -0.48326
 Alpha  occ. eigenvalues --   -0.44985  -0.43432  -0.41652  -0.39961
 Alpha virt. eigenvalues --   -0.04459   0.03455   0.03982   0.07876   0.11757
 Alpha virt. eigenvalues --    0.12103   0.16063   0.16273   0.17144   0.18590
 Alpha virt. eigenvalues --    0.20536   0.21246   0.22566   0.29078   0.32953
 Alpha virt. eigenvalues --    0.60780   0.62815   0.65475   0.65642   0.68575
 Alpha virt. eigenvalues --    0.73320   0.74910   0.76997   0.78410   0.79239
 Alpha virt. eigenvalues --    0.81439   0.98973   1.01388   1.21023   1.35213
 Alpha virt. eigenvalues --    1.45267   1.53023   1.54242   1.55349   1.57458
 Alpha virt. eigenvalues --    1.58179   1.60016   1.82756   1.85884   1.89758
 Alpha virt. eigenvalues --    1.96357   2.01254   2.02948   2.13707   2.16106
 Alpha virt. eigenvalues --    2.18800   2.22534   2.31117   2.46667   2.46755
 Alpha virt. eigenvalues --    2.56083   2.56382   2.73364   2.76175   3.15385
 Alpha virt. eigenvalues --    3.16439   3.19546   3.23639   3.40021   3.40788
 Alpha virt. eigenvalues --    4.12824   4.32397   5.61925   5.62384   5.62449
 Alpha virt. eigenvalues --    5.62966   5.64865   5.65001   5.65352   5.67364
 Alpha virt. eigenvalues --    5.77699   5.78779   5.81745   5.83391   6.08651
 Alpha virt. eigenvalues --    6.15891   6.79533   6.81446   6.82862   6.82925
 Alpha virt. eigenvalues --    7.01715   7.02416   7.04889   7.12152   7.35983
 Alpha virt. eigenvalues --    7.52640  45.01838  45.07207
          Condensed to atoms (all electrons):
               1          2          3
     1  Ti  19.682931   0.387267   0.398989
     2  O    0.387267   8.356790   0.000667
     3  O    0.398989   0.000667   8.386434
 Mulliken charges:
               1
     1  Ti   1.530814
     2  O   -0.744724
     3  O   -0.786090
 Sum of Mulliken charges =   0.00000
 Mulliken charges with hydrogens summed into heavy atoms:
               1
     1  Ti   1.530814
     2  O   -0.744724
     3  O   -0.786090
 Electronic spatial extent (au):  <R**2>=            207.2447
 Charge=              0.0000 electrons
 Dipole moment (field-independent basis, Debye):
    X=              0.3353    Y=              8.8530    Z=              0.0000  Tot=              8.8594
 Quadrupole moment (field-independent basis, Debye-Ang):
   XX=            -39.7706   YY=            -22.6969   ZZ=            -22.7017
   XY=             -0.7869   XZ=              0.0000   YZ=              0.0000
 Traceless Quadrupole moment (field-independent basis, Debye-Ang):
   XX=            -11.3809   YY=              5.6928   ZZ=              5.6881
   XY=             -0.7869   XZ=              0.0000   YZ=              0.0000
 Octapole moment (field-independent basis, Debye-Ang**2):
  XXX=              1.4516  YYY=             15.7078  ZZZ=              0.0000  XYY=              0.8338
  XXY=              9.5733  XXZ=              0.0000  XZZ=              0.3268  YZZ=              5.0091
  YYZ=              0.0000  XYZ=              0.0000
 Hexadecapole moment (field-independent basis, Debye-Ang**3):
 XXXX=           -206.0179 YYYY=            -53.8741 ZZZZ=            -20.7650 XXXY=             -4.7571
 XXXZ=              0.0000 YYYX=             -4.1072 YYYZ=              0.0000 ZZZX=              0.0000
 ZZZY=              0.0000 XXYY=            -42.8181 XXZZ=            -34.4707 YYZZ=            -12.1474
 XXYZ=              0.0000 YYXZ=              0.0000 ZZXY=             -1.2197
 N-N= 1.207622046833D+02 E-N=-2.607639970594D+03  KE= 9.974148795368D+02
 Symmetry A'   KE= 8.960358444852D+02
 Symmetry A"   KE= 1.013790350515D+02
 1|1|UNPC-DESKTOP-F4NP0R6|POpt|RMP2-FC|def2TZVP|O2Ti1|GARRETT|22-Jul-20
 18|1||# MP2 Def2TZVP opt=(noeigen,z-matrix) freq||TiO21a1||0,1|Ti|O,1,
 R1|O,1,R2,2,A1||R1=1.68249205|A1=108.10444989|R2=1.75||Version=EM64W-G
 16RevB.01|State=1-A'|HF=-998.1418713|MP2=-998.8594762|RMSD=4.855e-009|
 RMSF=1.896e-002|Dipole=-2.1616647,0.,-1.4084496|PG=CS [SG(O2Ti1)]||@


 DEPRESSION IS WAITING FOR YOUR SHIP TO COME IN,
 AND FINDING OUT IT'S THE TITANIC.
 Job cpu time:       0 days  0 hours  0 minutes 55.0 seconds.
 Elapsed time:       0 days  0 hours  0 minutes 41.0 seconds.
 File lengths (MBytes):  RWF=     10 Int=      0 D2E=      0 Chk=      2 Scr=      1
 Normal termination of Gaussian 16 at Sun Jul 22 15:26:40 2018.
 Link1:  Proceeding to internal job step number  2.
 ----------------------------------------------------------------------
 #N Geom=AllCheck Guess=TCheck SCRF=Check GenChk RMP2(FC)/def2TZVP Freq
 ----------------------------------------------------------------------
 1/10=4,11=1,29=7,30=1,38=1,40=1/1,3;
 2/12=2,40=1/2;
 3/5=44,7=101,11=1,14=-4,25=1,30=1,70=2,71=2,116=1,140=1/1,2,3;
 4/5=101/1;
 5/5=2,38=6,98=1/2;
 8/6=3,8=1,10=1,19=11,30=-1/1;
 9/15=3,16=-3/6;
 11/6=1,8=1,15=11,17=12,24=-1,27=1,28=-2,29=300,32=6,42=3/1,2,10;
 10/6=2,21=1/2;
 8/6=4,8=1,10=1,19=11,30=-1/11,4;
 10/5=1,20=4/2;
 11/12=2,14=11,16=1,17=2,28=-2,42=3,76=2/2,10,12;
 6/7=2,8=2,9=2,10=2/1;
 7/8=1,10=1,12=2,25=1,44=2/1,2,3,16;
 1/10=4,11=1,30=1/3;
 99//99;
 Structure from the checkpoint file:  "TiO21aHigher1.7.chk"
 -------
 TiO21a1
 -------
 Charge =  0 Multiplicity = 1
 Z-Matrix found in chk file.
 Ti
 O,1,R1
 O,1,R2,2,A1
      Variables:
 R1=1.68249205
 A1=108.10444989
      Constants:
 R2=1.75
 Recover connectivity data from disk.

 GradGradGradGradGradGradGradGradGradGradGradGradGradGradGradGradGradGrad
 Berny optimization.
 Initialization pass.
                       ----------------------------
                       !    Initial Parameters    !
                       ! (Angstroms and Degrees)  !
 ----------------------                            ----------------------
 !      Name          Value   Derivative information (Atomic Units)     !
 ------------------------------------------------------------------------
 !       R1          1.6825   calculate D2E/DX2 analytically            !
 !       A1        108.1044   calculate D2E/DX2 analytically            !
 !       R2          1.75     frozen, calculate D2E/DX2 analytically    !
 ------------------------------------------------------------------------
 Trust Radius=3.00D-01 FncErr=1.00D-07 GrdErr=1.00D-07 EigMax=2.50D+02 EigMin=1.00D-04
 Number of steps in this run=      2 maximum allowed number of steps=      2.
 GradGradGradGradGradGradGradGradGradGradGradGradGradGradGradGradGradGrad

                          Input orientation:                          
 ---------------------------------------------------------------------
 Center     Atomic      Atomic             Coordinates (Angstroms)
 Number     Number       Type             X           Y           Z
 ---------------------------------------------------------------------
      1         22           0        0.000000    0.000000    0.000000
      2          8           0        0.000000    0.000000    1.682492
      3          8           0        1.663360    0.000000   -0.543813
 ---------------------------------------------------------------------
                    Distance matrix (angstroms):
                    1          2          3
     1  Ti   0.000000
     2  O    1.682492   0.000000
     3  O    1.750000   2.779065   0.000000
 Stoichiometry    O2Ti
 Framework group  CS[SG(O2Ti)]
 Deg. of freedom     3
 Full point group                 CS      NOp   2
 Largest Abelian subgroup         CS      NOp   2
 Largest concise Abelian subgroup C1      NOp   1
                         Standard orientation:                         
 ---------------------------------------------------------------------
 Center     Atomic      Atomic             Coordinates (Angstroms)
 Number     Number       Type             X           Y           Z
 ---------------------------------------------------------------------
      1         22           0        0.000000    0.424374    0.000000
      2          8           0        1.388343   -0.526038    0.000000
      3          8           0       -1.388343   -0.640991    0.000000
 ---------------------------------------------------------------------
 Rotational constants (GHZ):          25.9925010           8.1757164           6.2194441
 Standard basis: def2TZVP (5D, 7F)
 There are    86 symmetry adapted cartesian basis functions of A'  symmetry.
 There are    38 symmetry adapted cartesian basis functions of A"  symmetry.
 There are    72 symmetry adapted basis functions of A'  symmetry.
 There are    35 symmetry adapted basis functions of A"  symmetry.
   107 basis functions,   204 primitive gaussians,   124 cartesian basis functions
    19 alpha electrons       19 beta electrons
       nuclear repulsion energy       120.7622046833 Hartrees.
 NAtoms=    3 NActive=    3 NUniq=    3 SFac= 1.00D+00 NAtFMM=   60 NAOKFM=F Big=F
 Integral buffers will be    131072 words long.
 Raffenetti 1 integral format.
 Two-electron integral symmetry is turned on.
 One-electron integrals computed using PRISM.
   2 Symmetry operations used in ECPInt.
 ECPInt:  NShTT=     703 NPrTT=    3029 LenC2=     698 LenP2D=    2538.
 LDataN:  DoStor=T MaxTD1= 6 Len=  172
 NBasis=   107 RedAO= T EigKep=  3.57D-03  NBF=    72    35
 NBsUse=   107 1.00D-06 EigRej= -1.00D+00 NBFU=    72    35
 Initial guess from the checkpoint file:  "TiO21aHigher1.7.chk"
 B after Tr=     0.000000    0.000000    0.000000
         Rot=    1.000000    0.000000    0.000000    0.000000 Ang=   0.00 deg.
 Initial guess orbital symmetries:
       Occupied  (A') (A') (A') (A') (A') (A") (A') (A') (A') (A')
                 (A") (A') (A') (A') (A') (A") (A') (A") (A')
       Virtual   (A') (A") (A') (A') (A") (A') (A") (A') (A") (A')
                 (A') (A") (A') (A') (A') (A') (A') (A") (A") (A')
                 (A') (A') (A") (A') (A") (A') (A') (A') (A") (A')
                 (A') (A") (A') (A") (A') (A') (A") (A") (A') (A')
                 (A') (A") (A') (A') (A") (A") (A') (A') (A") (A')
                 (A") (A') (A') (A') (A") (A') (A") (A') (A') (A')
                 (A') (A') (A") (A') (A") (A') (A") (A') (A') (A")
                 (A") (A') (A') (A") (A') (A') (A") (A') (A") (A')
                 (A') (A") (A") (A') (A') (A') (A') (A')
 Keep R1 ints in memory in symmetry-blocked form, NReq=25194790.
 Requested convergence on RMS density matrix=1.00D-08 within 128 cycles.
 Requested convergence on MAX density matrix=1.00D-06.
 Requested convergence on             energy=1.00D-06.
 No special actions if energy rises.
 SCF Done:  E(RHF) =  -998.141871337     A.U. after    1 cycles
            NFock=  1  Conv=0.51D-09     -V/T= 2.0007
 ExpMin= 3.27D-02 ExpMax= 2.12D+05 ExpMxC= 2.04D+03 IAcc=3 IRadAn=         5 AccDes= 0.00D+00
 HarFok:  IExCor=  205 AccDes= 0.00D+00 IRadAn=         5 IDoV=-2 UseB2=F ITyADJ=14
 ICtDFT= 12500011 ScaDFX=  1.000000  1.000000  1.000000  1.000000
 Range of M.O.s used for correlation:    12   107
 NBasis=   107 NAE=    19 NBE=    19 NFC=    11 NFV=     0
 NROrb=     96 NOA=     8 NOB=     8 NVA=    88 NVB=    88
 Disk-based method using ON**2 memory for  8 occupieds at a time.
 Permanent disk used for amplitudes=     3450172 words.
 Estimated scratch disk usage=    28466405 words.
 Actual    scratch disk usage=    27720933 words.
 JobTyp=1 Pass  1:  I=  12 to  19 NPSUse=  2 ParTrn=T ParDer=T DoDerP=T.
 (rs|ai) integrals will be sorted in core.
 Spin components of T(2) and E(2):
     alpha-alpha T2 =       0.4669282756D-01 E2=     -0.1050880250D+00
     alpha-beta  T2 =       0.2011230644D+00 E2=     -0.5074288168D+00
     beta-beta   T2 =       0.4669282756D-01 E2=     -0.1050880250D+00
 ANorm=    0.1137764791D+01
 E2 =    -0.7176048669D+00 EUMP2 =    -0.99885947620381D+03
   2 Symmetry operations used in ECPInt.
 ECPInt:  NShTT=     703 NPrTT=    3029 LenC2=     698 LenP2D=    2538.
 LDataN:  DoStor=T MaxTD1= 7 Len=  274
 G2DrvN: will do     4 centers at a time, making    1 passes.
 Calling FoFCou, ICntrl=  3107 FMM=F I1Cent=   0 AccDes= 0.00D+00.
 End of G2Drv F.D. properties file   721 does not exist.
 End of G2Drv F.D. properties file   722 does not exist.
 End of G2Drv F.D. properties file   788 does not exist.
          IDoAtm=111
          Differentiating once with respect to electric field.
                with respect to dipole field.
          Differentiating once with respect to nuclear coordinates.
 Keep R1 ints in memory in symmetry-blocked form, NReq=25195559.
          There are    12 degrees of freedom in the 1st order CPHF.  IDoFFX=6 NUNeed=    12.
      9 vectors produced by pass  0 Test12= 1.39D-14 8.33D-09 XBig12= 1.81D+01 1.59D+00.
 AX will form     9 AO Fock derivatives at one time.
      9 vectors produced by pass  1 Test12= 1.39D-14 8.33D-09 XBig12= 5.44D+00 7.41D-01.
      9 vectors produced by pass  2 Test12= 1.39D-14 8.33D-09 XBig12= 4.03D-01 1.64D-01.
      9 vectors produced by pass  3 Test12= 1.39D-14 8.33D-09 XBig12= 3.23D-02 6.96D-02.
      9 vectors produced by pass  4 Test12= 1.39D-14 8.33D-09 XBig12= 1.33D-03 1.01D-02.
      9 vectors produced by pass  5 Test12= 1.39D-14 8.33D-09 XBig12= 4.78D-05 2.75D-03.
      9 vectors produced by pass  6 Test12= 1.39D-14 8.33D-09 XBig12= 1.21D-06 3.18D-04.
      9 vectors produced by pass  7 Test12= 1.39D-14 8.33D-09 XBig12= 1.53D-08 3.24D-05.
      9 vectors produced by pass  8 Test12= 1.39D-14 8.33D-09 XBig12= 2.87D-10 7.69D-06.
      5 vectors produced by pass  9 Test12= 1.39D-14 8.33D-09 XBig12= 6.31D-12 8.03D-07.
      3 vectors produced by pass 10 Test12= 1.39D-14 8.33D-09 XBig12= 6.41D-14 4.42D-08.
 InvSVY:  IOpt=1 It=  1 EMax= 6.66D-16
 Solved reduced A of dimension    89 with     9 vectors.
 End of Minotr F.D. properties file   721 does not exist.
 End of Minotr F.D. properties file   722 does not exist.
 End of Minotr F.D. properties file   788 does not exist.
 MDV=   536870912.
 Form MO integral derivatives with frozen-active canonical formalism.
 Discarding MO integrals.
 Reordered first order wavefunction length =      5591168
 In DefCFB: NBatch=  1 ICI= 19 ICA= 88 LFMax= 44
            Large arrays: LIAPS=    88736384 LIARS=    75467392 words.
 Semi-Direct transformation.
 ModeAB=           2 MOrb=            19 LenV=     536407443
 LASXX=     10151206 LTotXX=    10151206 LenRXX=    10151206
 LTotAB=    10440956 MaxLAS=    15755750 LenRXY=    15755750
 NonZer=    20302412 LenScr=    31232000 LnRSAI=           0
 LnScr1=           0 LExtra=           0 Total=     57138956
 MaxDsk=          -1 SrtSym=           F ITran=            4
 JobTyp=0 Pass  1:  I=   1 to  19.
 (rs|ai) integrals will be sorted in core.
 Spin components of T(2) and E(2):
     alpha-alpha T2 =       0.4669282756D-01 E2=     -0.1050880250D+00
     alpha-beta  T2 =       0.2011230644D+00 E2=     -0.5074288168D+00
     beta-beta   T2 =       0.4669282756D-01 E2=     -0.1050880250D+00
 ANorm=    0.1609042398D+01
 E2 =    -0.7176048669D+00 EUMP2 =    -0.99885947620381D+03
          IDoAtm=111
          Differentiating once with respect to electric field.
                with respect to dipole field.
          Differentiating once with respect to nuclear coordinates.
          There are     1 degrees of freedom in the 1st order CPHF.  IDoFFX=0 NUNeed=     1.
 LinEq1:  Iter=  0 NonCon=     1 RMS=1.60D-02 Max=2.30D-01 NDo=     1
 LinEq1:  Iter=  1 NonCon=     1 RMS=8.92D-03 Max=9.20D-02 NDo=     1
 LinEq1:  Iter=  2 NonCon=     1 RMS=4.58D-03 Max=5.12D-02 NDo=     1
 LinEq1:  Iter=  3 NonCon=     1 RMS=2.08D-03 Max=2.31D-02 NDo=     1
 LinEq1:  Iter=  4 NonCon=     1 RMS=5.65D-04 Max=6.81D-03 NDo=     1
 LinEq1:  Iter=  5 NonCon=     1 RMS=2.04D-04 Max=2.77D-03 NDo=     1
 LinEq1:  Iter=  6 NonCon=     1 RMS=1.40D-04 Max=2.14D-03 NDo=     1
 LinEq1:  Iter=  7 NonCon=     1 RMS=6.72D-05 Max=9.60D-04 NDo=     1
 LinEq1:  Iter=  8 NonCon=     1 RMS=2.28D-05 Max=2.89D-04 NDo=     1
 LinEq1:  Iter=  9 NonCon=     1 RMS=5.91D-06 Max=6.48D-05 NDo=     1
 LinEq1:  Iter= 10 NonCon=     1 RMS=1.31D-06 Max=1.40D-05 NDo=     1
 LinEq1:  Iter= 11 NonCon=     1 RMS=3.16D-07 Max=4.54D-06 NDo=     1
 LinEq1:  Iter= 12 NonCon=     1 RMS=8.48D-08 Max=8.38D-07 NDo=     1
 LinEq1:  Iter= 13 NonCon=     1 RMS=2.52D-08 Max=2.71D-07 NDo=     1
 LinEq1:  Iter= 14 NonCon=     1 RMS=8.43D-09 Max=7.76D-08 NDo=     1
 LinEq1:  Iter= 15 NonCon=     1 RMS=2.43D-09 Max=2.98D-08 NDo=     1
 LinEq1:  Iter= 16 NonCon=     1 RMS=5.20D-10 Max=6.21D-09 NDo=     1
 LinEq1:  Iter= 17 NonCon=     1 RMS=1.20D-10 Max=1.42D-09 NDo=     1
 LinEq1:  Iter= 18 NonCon=     0 RMS=2.69D-11 Max=3.10D-10 NDo=     1
 Linear equations converged to 1.000D-10 1.000D-09 after    18 iterations.
 End of Minotr F.D. properties file   721 does not exist.
 End of Minotr F.D. properties file   722 does not exist.
 End of Minotr F.D. properties file   788 does not exist.
 Symmetrizing basis deriv contribution to polar:
 IMax=3 JMax=2 DiffMx= 0.00D+00
 G2DrvN: will do     4 centers at a time, making    1 passes.
 Calling FoFCou, ICntrl=  3107 FMM=F I1Cent=   0 AccDes= 0.00D+00.
 End of G2Drv F.D. properties file   721 does not exist.
 End of G2Drv F.D. properties file   722 does not exist.
 End of G2Drv F.D. properties file   788 does not exist.
 R2 and R3 integrals will be kept in memory, NReq=    62010250.
 DD1Dir will call FoFMem   1 times, MxPair=       380
 NAB=   190 NAA=     0 NBB=     0.
 Discarding MO integrals.

 **********************************************************************

            Population analysis using the SCF Density.

 **********************************************************************

 Orbital symmetries:
       Occupied  (A') (A') (A') (A') (A') (A") (A') (A') (A') (A')
                 (A") (A') (A') (A') (A') (A") (A') (A") (A')
       Virtual   (A') (A") (A') (A') (A") (A') (A") (A') (A") (A')
                 (A') (A") (A') (A') (A') (A') (A') (A") (A") (A')
                 (A') (A') (A") (A') (A") (A') (A') (A') (A") (A')
                 (A') (A") (A') (A") (A') (A') (A") (A") (A') (A')
                 (A') (A") (A') (A') (A") (A") (A') (A') (A") (A')
                 (A") (A') (A') (A') (A") (A') (A") (A') (A') (A')
                 (A') (A') (A") (A') (A") (A') (A") (A') (A') (A")
                 (A") (A') (A') (A") (A') (A') (A") (A') (A") (A')
                 (A') (A") (A") (A') (A') (A') (A') (A')
 The electronic state is 1-A'.
 Alpha  occ. eigenvalues -- -183.43095 -21.60538 -20.52231 -20.50532 -17.97308
 Alpha  occ. eigenvalues --  -17.97198 -17.97163  -3.00969  -1.94192  -1.93331
 Alpha  occ. eigenvalues --   -1.93092  -1.17043  -1.14691  -0.49414  -0.48326
 Alpha  occ. eigenvalues --   -0.44985  -0.43432  -0.41652  -0.39961
 Alpha virt. eigenvalues --   -0.04459   0.03455   0.03982   0.07876   0.11757
 Alpha virt. eigenvalues --    0.12103   0.16063   0.16273   0.17144   0.18590
 Alpha virt. eigenvalues --    0.20536   0.21246   0.22566   0.29078   0.32953
 Alpha virt. eigenvalues --    0.60780   0.62815   0.65475   0.65642   0.68575
 Alpha virt. eigenvalues --    0.73320   0.74910   0.76997   0.78410   0.79239
 Alpha virt. eigenvalues --    0.81439   0.98973   1.01388   1.21023   1.35213
 Alpha virt. eigenvalues --    1.45267   1.53023   1.54242   1.55349   1.57458
 Alpha virt. eigenvalues --    1.58179   1.60016   1.82756   1.85884   1.89758
 Alpha virt. eigenvalues --    1.96357   2.01254   2.02948   2.13707   2.16106
 Alpha virt. eigenvalues --    2.18800   2.22534   2.31117   2.46667   2.46755
 Alpha virt. eigenvalues --    2.56083   2.56382   2.73364   2.76175   3.15385
 Alpha virt. eigenvalues --    3.16439   3.19546   3.23639   3.40021   3.40788
 Alpha virt. eigenvalues --    4.12824   4.32397   5.61925   5.62384   5.62449
 Alpha virt. eigenvalues --    5.62966   5.64865   5.65001   5.65352   5.67364
 Alpha virt. eigenvalues --    5.77699   5.78779   5.81745   5.83391   6.08651
 Alpha virt. eigenvalues --    6.15891   6.79533   6.81446   6.82862   6.82925
 Alpha virt. eigenvalues --    7.01715   7.02416   7.04889   7.12152   7.35983
 Alpha virt. eigenvalues --    7.52640  45.01838  45.07207
          Condensed to atoms (all electrons):
               1          2          3
     1  Ti  19.682931   0.387267   0.398989
     2  O    0.387267   8.356790   0.000667
     3  O    0.398989   0.000667   8.386434
 Mulliken charges:
               1
     1  Ti   1.530814
     2  O   -0.744724
     3  O   -0.786090
 Sum of Mulliken charges =   0.00000
 Mulliken charges with hydrogens summed into heavy atoms:
               1
     1  Ti   1.530814
     2  O   -0.744724
     3  O   -0.786090
 APT charges:
               1
     1  Ti   1.275183
     2  O   -0.660462
     3  O   -0.614720
 Sum of APT charges =   0.00000
 APT charges with hydrogens summed into heavy atoms:
               1
     1  Ti   1.275183
     2  O   -0.660462
     3  O   -0.614720
 Electronic spatial extent (au):  <R**2>=            207.2447
 Charge=              0.0000 electrons
 Dipole moment (field-independent basis, Debye):
    X=              0.3353    Y=              8.8530    Z=              0.0000  Tot=              8.8594
 Quadrupole moment (field-independent basis, Debye-Ang):
   XX=            -39.7706   YY=            -22.6969   ZZ=            -22.7017
   XY=             -0.7869   XZ=              0.0000   YZ=              0.0000
 Traceless Quadrupole moment (field-independent basis, Debye-Ang):
   XX=            -11.3809   YY=              5.6928   ZZ=              5.6881
   XY=             -0.7869   XZ=              0.0000   YZ=              0.0000
 Octapole moment (field-independent basis, Debye-Ang**2):
  XXX=              1.4516  YYY=             15.7078  ZZZ=              0.0000  XYY=              0.8338
  XXY=              9.5733  XXZ=              0.0000  XZZ=              0.3268  YZZ=              5.0091
  YYZ=              0.0000  XYZ=              0.0000
 Hexadecapole moment (field-independent basis, Debye-Ang**3):
 XXXX=           -206.0179 YYYY=            -53.8741 ZZZZ=            -20.7650 XXXY=             -4.7571
 XXXZ=              0.0000 YYYX=             -4.1072 YYYZ=              0.0000 ZZZX=              0.0000
 ZZZY=              0.0000 XXYY=            -42.8181 XXZZ=            -34.4707 YYZZ=            -12.1474
 XXYZ=              0.0000 YYXZ=              0.0000 ZZXY=             -1.2197
 N-N= 1.207622046833D+02 E-N=-2.607639970626D+03  KE= 9.974148795138D+02
 Symmetry A'   KE= 8.960358444567D+02
 Symmetry A"   KE= 1.013790350571D+02
  Exact polarizability:  61.211   2.275  29.657   0.000   0.000  20.266
 Approx polarizability:  44.695   1.350  31.801   0.000   0.000  16.884
   2 Symmetry operations used in ECPInt.
 ECPInt:  NShTT=     703 NPrTT=    3029 LenC2=     698 LenP2D=    2538.
 LDataN:  DoStor=T MaxTD1= 8 Len=  415
 Calling FoFJK, ICntrl=  10100127 FMM=F ISym2X=1 I1Cent= 0 IOpClX= 0 NMat=1 NMatS=1 NMatT=0.
 Full mass-weighted force constant matrix:
 Low frequencies ---   -5.9643   -0.0042    0.0038    0.0071  102.1129  163.6890
 Low frequencies ---  327.2576  760.7843  920.0766
 Diagonal vibrational polarizability:
        7.5699736       1.3915843       0.0000000
 Harmonic frequencies (cm**-1), IR intensities (KM/Mole), Raman scattering
 activities (A**4/AMU), depolarization ratios for plane and unpolarized
 incident light, reduced masses (AMU), force constants (mDyne/A),
 and normal coordinates:
                      1                      2                      3
                     A'                     A'                     A'
 Frequencies --    324.7519               760.7816               920.0631
 Red. masses --     18.3183                19.0868                19.5197
 Frc consts  --      1.1383                 6.5088                 9.7355
 IR Inten    --      5.1546                53.9257               161.6502
  Atom  AN      X      Y      Z        X      Y      Z        X      Y      Z
     1  22    -0.01   0.27   0.00    -0.20  -0.24   0.00    -0.29   0.16   0.00
     2   8    -0.54  -0.43   0.00    -0.13   0.13   0.00     0.76  -0.54   0.00
     3   8     0.56  -0.37   0.00     0.72   0.59   0.00     0.11   0.06   0.00

 -------------------
 - Thermochemistry -
 -------------------
 Temperature   298.150 Kelvin.  Pressure   1.00000 Atm.
 Atom     1 has atomic number 22 and mass  47.94795
 Atom     2 has atomic number  8 and mass  15.99491
 Atom     3 has atomic number  8 and mass  15.99491
 Molecular mass:    79.93778 amu.
 Principal axes and moments of inertia in atomic units:
                           1         2         3
     Eigenvalues --    69.43315 220.74411 290.17725
           X            0.99818  -0.06036   0.00000
           Y            0.06036   0.99818   0.00000
           Z            0.00000   0.00000   1.00000
 This molecule is an asymmetric top.
 Rotational symmetry number  1.
 Rotational temperatures (Kelvin)      1.24744     0.39237     0.29849
 Rotational constants (GHZ):          25.99250     8.17572     6.21944
 Zero-point vibrational energy      11996.1 (Joules/Mol)
                                    2.86714 (Kcal/Mol)
 Warning -- explicit consideration of   1 degrees of freedom as
           vibrations may cause significant error
 Vibrational temperatures:    467.25  1094.60  1323.77
          (Kelvin)
 
 Zero-point correction=                           0.004569 (Hartree/Particle)
 Thermal correction to Energy=                    0.007932
 Thermal correction to Enthalpy=                  0.008876
 Thermal correction to Gibbs Free Energy=        -0.021399
 Sum of electronic and zero-point Energies=           -998.854907
 Sum of electronic and thermal Energies=              -998.851544
 Sum of electronic and thermal Enthalpies=            -998.850600
 Sum of electronic and thermal Free Energies=         -998.880875
 
                     E (Thermal)             CV                S
                      KCal/Mol        Cal/Mol-Kelvin    Cal/Mol-Kelvin
 Total                    4.978              8.778             63.720
 Electronic               0.000              0.000              0.000
 Translational            0.889              2.981             39.051
 Rotational               0.889              2.981             23.013
 Vibrational              3.200              2.817              1.657
 Vibration     1          0.709              1.626              1.286
                       Q            Log10(Q)             Ln(Q)
 Total Bot       0.696351D+10          9.842828         22.663949
 Total V=0       0.879953D+12         11.944459         27.503134
 Vib (Bot)       0.103834D-01         -1.983659         -4.567544
 Vib (Bot)    1  0.577196D+00         -0.238677         -0.549573
 Vib (V=0)       0.131212D+01          0.117972          0.271641
 Vib (V=0)    1  0.126365D+01          0.101625          0.234001
 Electronic      0.100000D+01          0.000000          0.000000
 Translational   0.280920D+08          7.448582         17.150994
 Rotational      0.238729D+05          4.377905         10.080499
 ***** Axes restored to original set *****
 -------------------------------------------------------------------
 Center     Atomic                   Forces (Hartrees/Bohr)
 Number     Number              X              Y              Z
 -------------------------------------------------------------------
      1       22           0.038240084    0.000000000   -0.012538012
      2        8          -0.000019649    0.000000000    0.000062231
      3        8          -0.038220435    0.000000000    0.012475781
 -------------------------------------------------------------------
 Cartesian Forces:  Max     0.038240084 RMS     0.018961824
 -----------------------------------------------------------------------------------------------
                       Internal Coordinate Forces (Hartree/Bohr or radian)
  Cent   Atom   N1       Length/X         N2         Alpha/Y        N3         Beta/Z          J
 -----------------------------------------------------------------------------------------------
      1  Ti
      2  O        1   0.000062(     1)
      3  O        1  -0.040205(     2)      2   0.000062(     3)
 -----------------------------------------------------------------------------------------------
 Internal  Forces:  Max     0.040205055 RMS     0.023212455

 GradGradGradGradGradGradGradGradGradGradGradGradGradGradGradGradGradGrad
 Berny optimization.
 Search for a local minimum.
 Step number   1 out of a maximum of    2
 All quantities printed in internal units (Hartrees-Bohrs-Radians)
 Second derivative matrix not updated -- analytic derivatives used.
 The second derivative matrix:
                          R1        A1        R2
           R1           0.37845
           A1          -0.00345   0.22074
           R2           0.00277  -0.00382   0.26378
 ITU=  0
     Eigenvalues ---    0.22067   0.378521000.00000
 Angle between quadratic step and forces=  14.57 degrees.
 Linear search not attempted -- first point.
 Variable       Old X    -DE/DX   Delta X   Delta X   Delta X     New X
                                 (Linear)    (Quad)   (Total)
    R1        3.17945   0.00006   0.00000   0.00017   0.00017   3.17962
    A1        1.88678   0.00006   0.00000   0.00029   0.00029   1.88706
    R2        3.30702  -0.04021   0.00000   0.00000   0.00000   3.30702
         Item               Value     Threshold  Converged?
 Maximum Force            0.000062     0.000450     YES
 RMS     Force            0.000062     0.000300     YES
 Maximum Displacement     0.000286     0.001800     YES
 RMS     Displacement     0.000191     0.001200     YES
 Predicted change in Energy=-1.411348D-08
 Optimization completed.
    -- Stationary point found.
                       ----------------------------
                       !   Optimized Parameters   !
                       ! (Angstroms and Degrees)  !
 ----------------------                            ----------------------
 !      Name          Value   Derivative information (Atomic Units)     !
 ------------------------------------------------------------------------
 !       R1          1.6825   -DE/DX =    0.0001                        !
 !       A1        108.1044   -DE/DX =    0.0001                        !
 !       R2          1.75     -DE/DX =   -0.0402                        !
 ------------------------------------------------------------------------
 GradGradGradGradGradGradGradGradGradGradGradGradGradGradGradGradGradGrad


 ----------------------------------------------------------------------

 Electric dipole moment (input orientation):
 (Debye = 10**-18 statcoulomb cm , SI units = C m)
                  (au)            (Debye)         (10**-30 SI)
   Tot        0.258002D+01      0.655777D+01      0.218744D+02
   x         -0.216166D+01     -0.549440D+01     -0.183274D+02
   y          0.000000D+00      0.000000D+00      0.000000D+00
   z         -0.140845D+01     -0.357992D+01     -0.119413D+02

 Dipole polarizability, Alpha (input orientation).
 (esu units = cm**3 , SI units = C**2 m**2 J**-1)
 Alpha(0;0):
               (au)            (10**-24 esu)      (10**-40 SI)
   iso        0.370446D+02      0.548944D+01      0.610783D+01
   aniso      0.373587D+02      0.553599D+01      0.615963D+01
   xx         0.418466D+02      0.620102D+01      0.689957D+01
   yx         0.000000D+00      0.000000D+00      0.000000D+00
   yy         0.202657D+02      0.300307D+01      0.334136D+01
   zx        -0.155308D+02     -0.230143D+01     -0.256069D+01
   zy         0.000000D+00      0.000000D+00      0.000000D+00
   zz         0.490215D+02      0.726424D+01      0.808256D+01

 ----------------------------------------------------------------------

 Dipole orientation:
    22          0.00000000          0.00000000          0.00000000
     8         -2.66389100          0.00000000         -1.73567908
     8          2.57696199          0.00000000         -2.07259570

 Electric dipole moment (dipole orientation):
 (Debye = 10**-18 statcoulomb cm , SI units = C m)
                  (au)            (Debye)         (10**-30 SI)
   Tot        0.258002D+01      0.655777D+01      0.218744D+02
   x          0.000000D+00      0.000000D+00      0.000000D+00
   y          0.000000D+00      0.000000D+00      0.000000D+00
   z          0.258002D+01      0.655777D+01      0.218744D+02

 Dipole polarizability, Alpha (dipole orientation).
 (esu units = cm**3 , SI units = C**2 m**2 J**-1)
 Alpha(0;0):
               (au)            (10**-24 esu)      (10**-40 SI)
   iso        0.370446D+02      0.548944D+01      0.610783D+01
   aniso      0.373587D+02      0.553599D+01      0.615963D+01
   xx         0.610904D+02      0.905267D+01      0.100725D+02
   yx         0.000000D+00      0.000000D+00      0.000000D+00
   yy         0.202657D+02      0.300307D+01      0.334136D+01
   zx        -0.299233D+01     -0.443418D+00     -0.493369D+00
   zy         0.000000D+00      0.000000D+00      0.000000D+00
   zz         0.297776D+02      0.441259D+01      0.490967D+01

 ----------------------------------------------------------------------
 1|1|UNPC-DESKTOP-F4NP0R6|Freq|RMP2-FC|def2TZVP|O2Ti1|GARRETT|22-Jul-20
 18|1||#N Geom=AllCheck Guess=TCheck SCRF=Check GenChk RMP2(FC)/def2TZV
 P Freq||TiO21a1||0,1|Ti|O,1,R1|O,1,R2,2,A1||R1=1.68249205|A1=108.10444
 989|R2=1.75||Version=EM64W-G16RevB.01|State=1-A'|HF=-998.1418713|MP2=-
 998.8594762|RMSD=5.113e-010|RMSF=1.896e-002|ZeroPoint=0.0045691|Therma
 l=0.0079323|Dipole=-2.1616647,0.,-1.4084496|DipoleDeriv=0.8661262,0.,-
 0.7397736,0.,1.3529719,0.,-0.8404955,0.,1.6064494,-0.3579104,0.,0.2101
 91,0.,-0.6652643,0.,0.5882882,0.,-0.9582126,-0.5082158,0.,0.5295827,0.
 ,-0.6877075,0.,0.2522073,0.,-0.6482368|Polar=41.8465559,0.,20.2656965,
 -15.5308334,0.,49.0215209|PG=CS [SG(O2Ti1)]|NImag=0||0.27926257,0.,0.0
 1215419,-0.04381716,0.,0.43271781,-0.02948303,0.,-0.02065896,0.0218169
 8,0.,0.00001139,0.,0.,-0.00001722,-0.00403388,0.,-0.37857608,0.0010775
 6,0.,0.37844643,-0.24977954,0.,0.06447612,0.00766605,0.,0.00295632,0.2
 4211349,0.,-0.01216559,0.,0.,0.00000583,0.,0.,0.01215975,0.04785104,0.
 ,-0.05414172,0.01958140,0.,0.00012966,-0.06743244,0.,0.05401206||-0.03
 824008,0.,0.01253801,0.00001965,0.,-0.00006223,0.03822044,0.,-0.012475
 78|||@


 MY DESCRIPTION OF EXPERIENCE IS NOT WHAT HAPPENS
 TO A MAN.  EXPERIENCE IS WHAT A MAN DOES WITH WHAT
 HAPPENS TO HIM.
                         - CHUCK KNOX, SEATTLE SEAHAWKS, 1985
 Job cpu time:       0 days  0 hours  6 minutes  4.0 seconds.
 Elapsed time:       0 days  0 hours  5 minutes 52.1 seconds.
 File lengths (MBytes):  RWF=   1341 Int=      0 D2E=      0 Chk=      2 Scr=      1
 Normal termination of Gaussian 16 at Sun Jul 22 15:32:45 2018.
