 Entering Link 1 = C:\G16W\l1.exe PID=     19032.
  
 Copyright (c) 1988-2017, Gaussian, Inc.  All Rights Reserved.
  
 This is part of the Gaussian(R) 16 program.  It is based on
 the Gaussian(R) 09 system (copyright 2009, Gaussian, Inc.),
 the Gaussian(R) 03 system (copyright 2003, Gaussian, Inc.),
 the Gaussian(R) 98 system (copyright 1998, Gaussian, Inc.),
 the Gaussian(R) 94 system (copyright 1995, Gaussian, Inc.),
 the Gaussian 92(TM) system (copyright 1992, Gaussian, Inc.),
 the Gaussian 90(TM) system (copyright 1990, Gaussian, Inc.),
 the Gaussian 88(TM) system (copyright 1988, Gaussian, Inc.),
 the Gaussian 86(TM) system (copyright 1986, Carnegie Mellon
 University), and the Gaussian 82(TM) system (copyright 1983,
 Carnegie Mellon University). Gaussian is a federally registered
 trademark of Gaussian, Inc.
  
 This software contains proprietary and confidential information,
 including trade secrets, belonging to Gaussian, Inc.
  
 This software is provided under written license and may be
 used, copied, transmitted, or stored only in accord with that
 written license.
  
 The following legend is applicable only to US Government
 contracts under FAR:
  
                    RESTRICTED RIGHTS LEGEND
  
 Use, reproduction and disclosure by the US Government is
 subject to restrictions as set forth in subparagraphs (a)
 and (c) of the Commercial Computer Software - Restricted
 Rights clause in FAR 52.227-19.
  
 Gaussian, Inc.
 340 Quinnipiac St., Bldg. 40, Wallingford CT 06492
  
  
 ---------------------------------------------------------------
 Warning -- This program may not be used in any manner that
 competes with the business of Gaussian, Inc. or will provide
 assistance to any competitor of Gaussian, Inc.  The licensee
 of this program is prohibited from giving any competitor of
 Gaussian, Inc. access to this program.  By using this program,
 the user acknowledges that Gaussian, Inc. is engaged in the
 business of creating and licensing software in the field of
 computational chemistry and represents and warrants to the
 licensee that it is not a competitor of Gaussian, Inc. and that
 it will not use this program in any manner prohibited above.
 ---------------------------------------------------------------
  

 Cite this work as:
 Gaussian 16, Revision B.01,
 M. J. Frisch, G. W. Trucks, H. B. Schlegel, G. E. Scuseria, 
 M. A. Robb, J. R. Cheeseman, G. Scalmani, V. Barone, 
 G. A. Petersson, H. Nakatsuji, X. Li, M. Caricato, A. V. Marenich, 
 J. Bloino, B. G. Janesko, R. Gomperts, B. Mennucci, H. P. Hratchian, 
 J. V. Ortiz, A. F. Izmaylov, J. L. Sonnenberg, D. Williams-Young, 
 F. Ding, F. Lipparini, F. Egidi, J. Goings, B. Peng, A. Petrone, 
 T. Henderson, D. Ranasinghe, V. G. Zakrzewski, J. Gao, N. Rega, 
 G. Zheng, W. Liang, M. Hada, M. Ehara, K. Toyota, R. Fukuda, 
 J. Hasegawa, M. Ishida, T. Nakajima, Y. Honda, O. Kitao, H. Nakai, 
 T. Vreven, K. Throssell, J. A. Montgomery, Jr., J. E. Peralta, 
 F. Ogliaro, M. J. Bearpark, J. J. Heyd, E. N. Brothers, K. N. Kudin, 
 V. N. Staroverov, T. A. Keith, R. Kobayashi, J. Normand, 
 K. Raghavachari, A. P. Rendell, J. C. Burant, S. S. Iyengar, 
 J. Tomasi, M. Cossi, J. M. Millam, M. Klene, C. Adamo, R. Cammi, 
 J. W. Ochterski, R. L. Martin, K. Morokuma, O. Farkas, 
 J. B. Foresman, and D. J. Fox, Gaussian, Inc., Wallingford CT, 2016.
 
 ******************************************
 Gaussian 16:  EM64W-G16RevB.01 16-Dec-2017
                22-Jul-2018 
 ******************************************
 %nproc=2
 Will use up to    2 processors via shared memory.
 %mem=4gb
 %chk=TiO21aHigher2.chk
 --------------------------------------------
 # QCISD Def2TZVP opt=(noeigen,z-matrix) freq
 --------------------------------------------
 1/10=7,11=1,18=40,38=1/1,3;
 2/12=2,17=6,18=5,29=3,40=1/2;
 3/5=44,7=101,11=9,25=1,30=1,71=1/1,2,3;
 4//1;
 5/5=2,38=5/2;
 8/6=4,9=120000,10=1/1,4;
 9/5=8,15=1/13;
 11/28=-7,29=200,42=3/11;
 10/5=6/2;
 6/7=2,8=2,9=2,10=2/1;
 7/12=7,29=1/1,2,3,16;
 1/10=7,11=1,18=40/3(2);
 2/29=3/2;
 99//99;
 2/29=3/2;
 3/5=44,7=101,11=9,25=1,30=1,71=1/1,2,3;
 4/5=5,16=3,69=1/1;
 5/5=2,38=5/2;
 8/6=4,9=120000,10=1/1,4;
 9/5=8,15=1/13;
 11/28=-7,29=200,42=3/11;
 10/5=6/2;
 7/12=7/1,2,3,16;
 1/11=1,18=40/3(-9);
 2/29=3/2;
 6/7=2,8=2,9=2,10=2/1;
 99/9=10/99;
 -------
 TiO21a1
 -------
 Symbolic Z-matrix:
 Charge =  0 Multiplicity = 1
 Ti
 O                    1    R1
 O                    1    R1       2    A1
       Variables:
  R1                    1.68346                  
  A1                  107.96916                  
 

 GradGradGradGradGradGradGradGradGradGradGradGradGradGradGradGradGradGrad
 Berny optimization.
 Initialization pass.
                       ----------------------------
                       !    Initial Parameters    !
                       ! (Angstroms and Degrees)  !
 ----------------------                            ----------------------
 !      Name          Value   Derivative information (Atomic Units)     !
 ------------------------------------------------------------------------
 !       R1          1.6835   estimate D2E/DX2                          !
 !       A1        107.9692   estimate D2E/DX2                          !
 ------------------------------------------------------------------------
 Trust Radius=3.00D-01 FncErr=1.00D-07 GrdErr=1.00D-07 EigMax=2.50D+02 EigMin=1.00D-04
 Number of steps in this run=     20 maximum allowed number of steps=    100.
 GradGradGradGradGradGradGradGradGradGradGradGradGradGradGradGradGradGrad

 ---------------------------------------------------------------------------------------------------
                            Z-MATRIX (ANGSTROMS AND DEGREES)
   CD    Cent   Atom    N1       Length/X        N2       Alpha/Y        N3        Beta/Z          J
 ---------------------------------------------------------------------------------------------------
      1      1  Ti
      2      2  O        1   1.683455(     1)
      3      3  O        1   1.683455(     2)      2  107.969(     3)
 ---------------------------------------------------------------------------------------------------
                         Z-Matrix orientation:                         
 ---------------------------------------------------------------------
 Center     Atomic      Atomic             Coordinates (Angstroms)
 Number     Number       Type             X           Y           Z
 ---------------------------------------------------------------------
      1         22           0        0.000000    0.000000    0.000000
      2          8           0        0.000000    0.000000    1.683455
      3          8           0        1.601341    0.000000   -0.519354
 ---------------------------------------------------------------------
                    Distance matrix (angstroms):
                    1          2          3
     1  Ti   0.000000
     2  O    1.683455   0.000000
     3  O    1.683455   2.723355   0.000000
 Stoichiometry    O2Ti
 Framework group  C2V[C2(Ti),SGV(O2)]
 Deg. of freedom     2
 Full point group                 C2V     NOp   4
 Largest Abelian subgroup         C2V     NOp   4
 Largest concise Abelian subgroup C2      NOp   2
                         Standard orientation:                         
 ---------------------------------------------------------------------
 Center     Atomic      Atomic             Coordinates (Angstroms)
 Number     Number       Type             X           Y           Z
 ---------------------------------------------------------------------
      1         22           0        0.000000    0.000000    0.416790
      2          8           0        0.000000    1.361677   -0.573086
      3          8           0        0.000000   -1.361677   -0.573086
 ---------------------------------------------------------------------
 Rotational constants (GHZ):          26.8797463           8.5203378           6.4696038
 Standard basis: def2TZVP (5D, 7F)
 There are    50 symmetry adapted cartesian basis functions of A1  symmetry.
 There are    16 symmetry adapted cartesian basis functions of A2  symmetry.
 There are    22 symmetry adapted cartesian basis functions of B1  symmetry.
 There are    36 symmetry adapted cartesian basis functions of B2  symmetry.
 There are    41 symmetry adapted basis functions of A1  symmetry.
 There are    15 symmetry adapted basis functions of A2  symmetry.
 There are    20 symmetry adapted basis functions of B1  symmetry.
 There are    31 symmetry adapted basis functions of B2  symmetry.
   107 basis functions,   204 primitive gaussians,   124 cartesian basis functions
    19 alpha electrons       19 beta electrons
       nuclear repulsion energy       123.0835552730 Hartrees.
 NAtoms=    3 NActive=    3 NUniq=    2 SFac= 2.25D+00 NAtFMM=   60 NAOKFM=F Big=F
 Integral buffers will be    131072 words long.
 Raffenetti 1 integral format.
 Two-electron integral symmetry is turned on.
 One-electron integrals computed using PRISM.
   4 Symmetry operations used in ECPInt.
 ECPInt:  NShTT=     703 NPrTT=    3029 LenC2=     698 LenP2D=    2551.
 LDataN:  DoStor=T MaxTD1= 6 Len=  172
 NBasis=   107 RedAO= T EigKep=  3.46D-03  NBF=    41    15    20    31
 NBsUse=   107 1.00D-06 EigRej= -1.00D+00 NBFU=    41    15    20    31
 ExpMin= 3.27D-02 ExpMax= 2.12D+05 ExpMxC= 2.04D+03 IAcc=3 IRadAn=         5 AccDes= 0.00D+00
 Harris functional with IExCor=  205 and IRadAn=       5 diagonalized for initial guess.
 HarFok:  IExCor=  205 AccDes= 0.00D+00 IRadAn=         5 IDoV= 1 UseB2=F ITyADJ=14
 ICtDFT=  3500011 ScaDFX=  1.000000  1.000000  1.000000  1.000000
 FoFCou: FMM=F IPFlag=           0 FMFlag=      100000 FMFlg1=           0
         NFxFlg=           0 DoJE=T BraDBF=F KetDBF=T FulRan=T
         wScrn=  0.000000 ICntrl=       500 IOpCl=  0 I1Cent=   200000004 NGrid=           0
         NMat0=    1 NMatS0=      1 NMatT0=    0 NMatD0=    1 NMtDS0=    0 NMtDT0=    0
 Petite list used in FoFCou.
 Initial guess orbital symmetries:
       Occupied  (A1) (A1) (B2) (A1) (B2) (A1) (B1) (A1) (B2) (A1)
                 (B1) (A1) (B2) (A1) (B2) (A2) (B1) (A1) (B2)
       Virtual   (A1) (B1) (A1) (A2) (B2) (A1) (B1) (A1) (B2) (A2)
                 (B1) (A1) (A1) (B2) (A1) (A1) (B2) (B2) (A1) (A2)
                 (B1) (B1) (A2) (A1) (B2) (A1) (B2) (A1) (B1) (A1)
                 (B2) (A2) (B1) (B2) (A1) (A1) (B1) (A2) (B2) (A1)
                 (B1) (B2) (A1) (A1) (A2) (B1) (B2) (A1) (B2) (B1)
                 (A1) (A2) (B2) (A1) (B1) (B2) (A2) (A1) (A1) (B2)
                 (A1) (B2) (A2) (B2) (A2) (B1) (A1) (B2) (A1) (B1)
                 (B1) (A1) (B2) (A2) (A1) (B2) (A2) (A1) (B2) (B1)
                 (B2) (B1) (A2) (A1) (A1) (B2) (A1) (B2)
 The electronic state of the initial guess is 1-A1.
 Keep R1 ints in memory in symmetry-blocked form, NReq=20959436.
 Requested convergence on RMS density matrix=1.00D-08 within 128 cycles.
 Requested convergence on MAX density matrix=1.00D-06.
 Requested convergence on             energy=1.00D-06.
 No special actions if energy rises.
 SCF Done:  E(RHF) =  -998.154056068     A.U. after   16 cycles
            NFock= 16  Conv=0.95D-08     -V/T= 2.0006
 ExpMin= 3.27D-02 ExpMax= 2.12D+05 ExpMxC= 2.04D+03 IAcc=3 IRadAn=         5 AccDes= 0.00D+00
 HarFok:  IExCor=  205 AccDes= 0.00D+00 IRadAn=         5 IDoV=-2 UseB2=F ITyADJ=14
 ICtDFT= 12500011 ScaDFX=  1.000000  1.000000  1.000000  1.000000
 Range of M.O.s used for correlation:    12   107
 NBasis=   107 NAE=    19 NBE=    19 NFC=    11 NFV=     0
 NROrb=     96 NOA=     8 NOB=     8 NVA=    88 NVB=    88
 Semi-Direct transformation.
 ModeAB=           4 MOrb=             8 LenV=     536444839
 LASXX=       840250 LTotXX=      840250 LenRXX=     1709558
 LTotAB=      869308 MaxLAS=     3711744 LenRXY=           0
 NonZer=     2549808 LenScr=     4589568 LnRSAI=     3711744
 LnScr1=     6287360 LExtra=           0 Total=     16298230
 MaxDsk=          -1 SrtSym=           T ITran=            4
 JobTyp=0 Pass  1:  I=   1 to   8.
 (rs|ai) integrals will be sorted in core.
 Spin components of T(2) and E(2):
     alpha-alpha T2 =       0.4460103548D-01 E2=     -0.1036565525D+00
     alpha-beta  T2 =       0.1923950537D+00 E2=     -0.5007894276D+00
     beta-beta   T2 =       0.4460103548D-01 E2=     -0.1036565525D+00
 ANorm=    0.1132076466D+01
 E2 =    -0.7081025325D+00 EUMP2 =    -0.99886215860011D+03
 Keep R2 and R3 ints in memory in symmetry-blocked form, NReq=20964240.
 CIDS: In Core Option IDoMem=           1.
 Iterations=  50 Convergence= 0.100D-07
 Produce multiple copies of IABC intergrals
 Iteration Nr.   1
 **********************
 DD1Dir will call FoFMem   1 times, MxPair=        72
 NAB=    36 NAA=     0 NBB=     0.
 MP4(R+Q)=  0.11312075D-01
 E3=        0.12760382D+00        EUMP3=      -0.99873455478D+03
 E4(DQ)=   -0.60172686D-01        UMP4(DQ)=   -0.99879472747D+03
 E4(SDQ)=  -0.12836938D+00        UMP4(SDQ)=  -0.99886292417D+03
 DE(Corr)= -0.56918664     E(Corr)=     -998.72324271    
 NORM(A)=   0.11113041D+01
 Iteration Nr.   2
 **********************
 DD1Dir will call FoFMem   1 times, MxPair=        72
 NAB=    36 NAA=     0 NBB=     0.
 DE(Corr)= -0.68424686     E(CORR)=     -998.83830293     Delta=-1.15D-01
 NORM(A)=   0.11229543D+01
 Iteration Nr.   3
 **********************
 DD1Dir will call FoFMem   1 times, MxPair=        72
 NAB=    36 NAA=     0 NBB=     0.
 DE(Corr)= -0.64499327     E(CORR)=     -998.79904934     Delta= 3.93D-02
 NORM(A)=   0.11474140D+01
 Iteration Nr.   4
 **********************
 DD1Dir will call FoFMem   1 times, MxPair=        72
 NAB=    36 NAA=     0 NBB=     0.
 DE(Corr)= -0.65868802     E(CORR)=     -998.81274408     Delta=-1.37D-02
 NORM(A)=   0.11732830D+01
 Iteration Nr.   5
 **********************
 DD1Dir will call FoFMem   1 times, MxPair=        72
 NAB=    36 NAA=     0 NBB=     0.
 DE(Corr)= -0.66490866     E(CORR)=     -998.81896473     Delta=-6.22D-03
 NORM(A)=   0.11967149D+01
 Iteration Nr.   6
 **********************
 DD1Dir will call FoFMem   1 times, MxPair=        72
 NAB=    36 NAA=     0 NBB=     0.
 DE(Corr)= -0.66759626     E(CORR)=     -998.82165233     Delta=-2.69D-03
 NORM(A)=   0.12125163D+01
 Iteration Nr.   7
 **********************
 DD1Dir will call FoFMem   1 times, MxPair=        72
 NAB=    36 NAA=     0 NBB=     0.
 DE(Corr)= -0.66866431     E(CORR)=     -998.82272038     Delta=-1.07D-03
 NORM(A)=   0.12249153D+01
 Iteration Nr.   8
 **********************
 DD1Dir will call FoFMem   1 times, MxPair=        72
 NAB=    36 NAA=     0 NBB=     0.
 DE(Corr)= -0.67026646     E(CORR)=     -998.82432253     Delta=-1.60D-03
 NORM(A)=   0.12274211D+01
 Iteration Nr.   9
 **********************
 DD1Dir will call FoFMem   1 times, MxPair=        72
 NAB=    36 NAA=     0 NBB=     0.
 DE(Corr)= -0.66949023     E(CORR)=     -998.82354630     Delta= 7.76D-04
 NORM(A)=   0.12275193D+01
 Iteration Nr.  10
 **********************
 DD1Dir will call FoFMem   1 times, MxPair=        72
 NAB=    36 NAA=     0 NBB=     0.
 DE(Corr)= -0.67005617     E(CORR)=     -998.82411223     Delta=-5.66D-04
 NORM(A)=   0.12286244D+01
 Iteration Nr.  11
 **********************
 DD1Dir will call FoFMem   1 times, MxPair=        72
 NAB=    36 NAA=     0 NBB=     0.
 DE(Corr)= -0.66955473     E(CORR)=     -998.82361080     Delta= 5.01D-04
 NORM(A)=   0.12290851D+01
 Iteration Nr.  12
 **********************
 DD1Dir will call FoFMem   1 times, MxPair=        72
 NAB=    36 NAA=     0 NBB=     0.
 DE(Corr)= -0.67017263     E(CORR)=     -998.82422870     Delta=-6.18D-04
 NORM(A)=   0.12298367D+01
 Iteration Nr.  13
 **********************
 DD1Dir will call FoFMem   1 times, MxPair=        72
 NAB=    36 NAA=     0 NBB=     0.
 DE(Corr)= -0.66987726     E(CORR)=     -998.82393332     Delta= 2.95D-04
 NORM(A)=   0.12303113D+01
 Iteration Nr.  14
 **********************
 DD1Dir will call FoFMem   1 times, MxPair=        72
 NAB=    36 NAA=     0 NBB=     0.
 DE(Corr)= -0.67008927     E(CORR)=     -998.82414534     Delta=-2.12D-04
 NORM(A)=   0.12307769D+01
 Iteration Nr.  15
 **********************
 DD1Dir will call FoFMem   1 times, MxPair=        72
 NAB=    36 NAA=     0 NBB=     0.
 DE(Corr)= -0.67004120     E(CORR)=     -998.82409726     Delta= 4.81D-05
 NORM(A)=   0.12313841D+01
 Iteration Nr.  16
 **********************
 DD1Dir will call FoFMem   1 times, MxPair=        72
 NAB=    36 NAA=     0 NBB=     0.
 DE(Corr)= -0.67012467     E(CORR)=     -998.82418074     Delta=-8.35D-05
 NORM(A)=   0.12316208D+01
 Iteration Nr.  17
 **********************
 DD1Dir will call FoFMem   1 times, MxPair=        72
 NAB=    36 NAA=     0 NBB=     0.
 DE(Corr)= -0.67011730     E(CORR)=     -998.82417337     Delta= 7.37D-06
 NORM(A)=   0.12318102D+01
 Iteration Nr.  18
 **********************
 DD1Dir will call FoFMem   1 times, MxPair=        72
 NAB=    36 NAA=     0 NBB=     0.
 DE(Corr)= -0.67013764     E(CORR)=     -998.82419370     Delta=-2.03D-05
 NORM(A)=   0.12319421D+01
 Iteration Nr.  19
 **********************
 DD1Dir will call FoFMem   1 times, MxPair=        72
 NAB=    36 NAA=     0 NBB=     0.
 DE(Corr)= -0.67011228     E(CORR)=     -998.82416835     Delta= 2.54D-05
 NORM(A)=   0.12320172D+01
 Iteration Nr.  20
 **********************
 DD1Dir will call FoFMem   1 times, MxPair=        72
 NAB=    36 NAA=     0 NBB=     0.
 DE(Corr)= -0.67015066     E(CORR)=     -998.82420672     Delta=-3.84D-05
 NORM(A)=   0.12321090D+01
 Iteration Nr.  21
 **********************
 DD1Dir will call FoFMem   1 times, MxPair=        72
 NAB=    36 NAA=     0 NBB=     0.
 DE(Corr)= -0.67011664     E(CORR)=     -998.82417271     Delta= 3.40D-05
 NORM(A)=   0.12321501D+01
 Iteration Nr.  22
 **********************
 DD1Dir will call FoFMem   1 times, MxPair=        72
 NAB=    36 NAA=     0 NBB=     0.
 DE(Corr)= -0.67014413     E(CORR)=     -998.82420020     Delta=-2.75D-05
 NORM(A)=   0.12321855D+01
 Iteration Nr.  23
 **********************
 DD1Dir will call FoFMem   1 times, MxPair=        72
 NAB=    36 NAA=     0 NBB=     0.
 DE(Corr)= -0.67013120     E(CORR)=     -998.82418726     Delta= 1.29D-05
 NORM(A)=   0.12322162D+01
 Iteration Nr.  24
 **********************
 DD1Dir will call FoFMem   1 times, MxPair=        72
 NAB=    36 NAA=     0 NBB=     0.
 DE(Corr)= -0.67014337     E(CORR)=     -998.82419943     Delta=-1.22D-05
 NORM(A)=   0.12322358D+01
 Iteration Nr.  25
 **********************
 DD1Dir will call FoFMem   1 times, MxPair=        72
 NAB=    36 NAA=     0 NBB=     0.
 DE(Corr)= -0.67014090     E(CORR)=     -998.82419697     Delta= 2.47D-06
 NORM(A)=   0.12322556D+01
 Iteration Nr.  26
 **********************
 DD1Dir will call FoFMem   1 times, MxPair=        72
 NAB=    36 NAA=     0 NBB=     0.
 DE(Corr)= -0.67014474     E(CORR)=     -998.82420081     Delta=-3.84D-06
 NORM(A)=   0.12322675D+01
 Iteration Nr.  27
 **********************
 DD1Dir will call FoFMem   1 times, MxPair=        72
 NAB=    36 NAA=     0 NBB=     0.
 DE(Corr)= -0.67014058     E(CORR)=     -998.82419664     Delta= 4.16D-06
 NORM(A)=   0.12322764D+01
 Iteration Nr.  28
 **********************
 DD1Dir will call FoFMem   1 times, MxPair=        72
 NAB=    36 NAA=     0 NBB=     0.
 DE(Corr)= -0.67014498     E(CORR)=     -998.82420105     Delta=-4.41D-06
 NORM(A)=   0.12322817D+01
 Iteration Nr.  29
 **********************
 DD1Dir will call FoFMem   1 times, MxPair=        72
 NAB=    36 NAA=     0 NBB=     0.
 DE(Corr)= -0.67014027     E(CORR)=     -998.82419634     Delta= 4.71D-06
 NORM(A)=   0.12322850D+01
 Iteration Nr.  30
 **********************
 DD1Dir will call FoFMem   1 times, MxPair=        72
 NAB=    36 NAA=     0 NBB=     0.
 DE(Corr)= -0.67014454     E(CORR)=     -998.82420061     Delta=-4.27D-06
 NORM(A)=   0.12322908D+01
 Iteration Nr.  31
 **********************
 DD1Dir will call FoFMem   1 times, MxPair=        72
 NAB=    36 NAA=     0 NBB=     0.
 DE(Corr)= -0.67014175     E(CORR)=     -998.82419782     Delta= 2.79D-06
 NORM(A)=   0.12322952D+01
 Iteration Nr.  32
 **********************
 DD1Dir will call FoFMem   1 times, MxPair=        72
 NAB=    36 NAA=     0 NBB=     0.
 DE(Corr)= -0.67014346     E(CORR)=     -998.82419952     Delta=-1.70D-06
 NORM(A)=   0.12322973D+01
 Iteration Nr.  33
 **********************
 DD1Dir will call FoFMem   1 times, MxPair=        72
 NAB=    36 NAA=     0 NBB=     0.
 DE(Corr)= -0.67014302     E(CORR)=     -998.82419908     Delta= 4.40D-07
 NORM(A)=   0.12322995D+01
 Iteration Nr.  34
 **********************
 DD1Dir will call FoFMem   1 times, MxPair=        72
 NAB=    36 NAA=     0 NBB=     0.
 DE(Corr)= -0.67014399     E(CORR)=     -998.82420006     Delta=-9.77D-07
 NORM(A)=   0.12323010D+01
 Iteration Nr.  35
 **********************
 DD1Dir will call FoFMem   1 times, MxPair=        72
 NAB=    36 NAA=     0 NBB=     0.
 DE(Corr)= -0.67014315     E(CORR)=     -998.82419922     Delta= 8.46D-07
 NORM(A)=   0.12323026D+01
 Iteration Nr.  36
 **********************
 DD1Dir will call FoFMem   1 times, MxPair=        72
 NAB=    36 NAA=     0 NBB=     0.
 DE(Corr)= -0.67014404     E(CORR)=     -998.82420011     Delta=-8.91D-07
 NORM(A)=   0.12323040D+01
 Iteration Nr.  37
 **********************
 DD1Dir will call FoFMem   1 times, MxPair=        72
 NAB=    36 NAA=     0 NBB=     0.
 DE(Corr)= -0.67014329     E(CORR)=     -998.82419935     Delta= 7.54D-07
 NORM(A)=   0.12323045D+01
 Iteration Nr.  38
 **********************
 DD1Dir will call FoFMem   1 times, MxPair=        72
 NAB=    36 NAA=     0 NBB=     0.
 DE(Corr)= -0.67014375     E(CORR)=     -998.82419982     Delta=-4.64D-07
 NORM(A)=   0.12323049D+01
 Iteration Nr.  39
 **********************
 DD1Dir will call FoFMem   1 times, MxPair=        72
 NAB=    36 NAA=     0 NBB=     0.
 DE(Corr)= -0.67014363     E(CORR)=     -998.82419970     Delta= 1.15D-07
 NORM(A)=   0.12323052D+01
 Iteration Nr.  40
 **********************
 DD1Dir will call FoFMem   1 times, MxPair=        72
 NAB=    36 NAA=     0 NBB=     0.
 DE(Corr)= -0.67014374     E(CORR)=     -998.82419981     Delta=-1.10D-07
 NORM(A)=   0.12323052D+01
 Iteration Nr.  41
 **********************
 DD1Dir will call FoFMem   1 times, MxPair=        72
 NAB=    36 NAA=     0 NBB=     0.
 DE(Corr)= -0.67014361     E(CORR)=     -998.82419968     Delta= 1.34D-07
 NORM(A)=   0.12323053D+01
 Iteration Nr.  42
 **********************
 DD1Dir will call FoFMem   1 times, MxPair=        72
 NAB=    36 NAA=     0 NBB=     0.
 DE(Corr)= -0.67014370     E(CORR)=     -998.82419977     Delta=-8.86D-08
 NORM(A)=   0.12323053D+01
 Iteration Nr.  43
 **********************
 DD1Dir will call FoFMem   1 times, MxPair=        72
 NAB=    36 NAA=     0 NBB=     0.
 DE(Corr)= -0.67014365     E(CORR)=     -998.82419971     Delta= 5.23D-08
 NORM(A)=   0.12323053D+01
 Iteration Nr.  44
 **********************
 DD1Dir will call FoFMem   1 times, MxPair=        72
 NAB=    36 NAA=     0 NBB=     0.
 DE(Corr)= -0.67014370     E(CORR)=     -998.82419976     Delta=-4.91D-08
 NORM(A)=   0.12323053D+01
 Iteration Nr.  45
 **********************
 DD1Dir will call FoFMem   1 times, MxPair=        72
 NAB=    36 NAA=     0 NBB=     0.
 DE(Corr)= -0.67014367     E(CORR)=     -998.82419974     Delta= 2.78D-08
 NORM(A)=   0.12323053D+01
 Iteration Nr.  46
 **********************
 DD1Dir will call FoFMem   1 times, MxPair=        72
 NAB=    36 NAA=     0 NBB=     0.
 DE(Corr)= -0.67014367     E(CORR)=     -998.82419974     Delta=-5.26D-09
 NORM(A)=   0.12323053D+01
 Wavefunction amplitudes converged. E(Corr)=     -998.82419974    
 Dominant configurations:
 ***********************
 Spin Case        I    J    A    B          Value
    AA           17        22            0.212343D+00
    AA           18        21           -0.167154D+00
 Largest amplitude= 2.12D-01

 Z-amplitude iterations

 Iteration Nr.   1
 **********************
 DD1Dir will call FoFMem   1 times, MxPair=        72
 NAB=    36 NAA=     0 NBB=     0.
 DE(Z)= -0.64451715     E(Z)=     -998.79857322     Delta= 2.56D-02
 NORM(A)=   0.12323051D+01
 Iteration Nr.   2
 **********************
 DD1Dir will call FoFMem   1 times, MxPair=        72
 NAB=    36 NAA=     0 NBB=     0.
 DE(Z)= -0.64451718     E(Z)=     -998.79857325     Delta=-3.39D-08
 NORM(A)=   0.12323052D+01
 Iteration Nr.   3
 **********************
 DD1Dir will call FoFMem   1 times, MxPair=        72
 NAB=    36 NAA=     0 NBB=     0.
 DE(Z)= -0.64451706     E(Z)=     -998.79857312     Delta= 1.25D-07
 NORM(A)=   0.12323057D+01
 Iteration Nr.   4
 **********************
 DD1Dir will call FoFMem   1 times, MxPair=        72
 NAB=    36 NAA=     0 NBB=     0.
 DE(Z)= -0.64451734     E(Z)=     -998.79857341     Delta=-2.83D-07
 NORM(A)=   0.12323045D+01
 Iteration Nr.   5
 **********************
 DD1Dir will call FoFMem   1 times, MxPair=        72
 NAB=    36 NAA=     0 NBB=     0.
 DE(Z)= -0.64451689     E(Z)=     -998.79857295     Delta= 4.54D-07
 NORM(A)=   0.12565343D+01
 Iteration Nr.   6
 **********************
 DD1Dir will call FoFMem   1 times, MxPair=        72
 NAB=    36 NAA=     0 NBB=     0.
 DE(Z)= -0.64959697     E(Z)=     -998.80365304     Delta=-5.08D-03
 NORM(A)=   0.12584057D+01
 Iteration Nr.   7
 **********************
 DD1Dir will call FoFMem   1 times, MxPair=        72
 NAB=    36 NAA=     0 NBB=     0.
 DE(Z)= -0.65098752     E(Z)=     -998.80504359     Delta=-1.39D-03
 NORM(A)=   0.12593113D+01
 Iteration Nr.   8
 **********************
 DD1Dir will call FoFMem   1 times, MxPair=        72
 NAB=    36 NAA=     0 NBB=     0.
 DE(Z)= -0.65000888     E(Z)=     -998.80406494     Delta= 9.79D-04
 NORM(A)=   0.12600483D+01
 Iteration Nr.   9
 **********************
 DD1Dir will call FoFMem   1 times, MxPair=        72
 NAB=    36 NAA=     0 NBB=     0.
 DE(Z)= -0.65034538     E(Z)=     -998.80440145     Delta=-3.37D-04
 NORM(A)=   0.12604953D+01
 Iteration Nr.  10
 **********************
 DD1Dir will call FoFMem   1 times, MxPair=        72
 NAB=    36 NAA=     0 NBB=     0.
 DE(Z)= -0.65034566     E(Z)=     -998.80440173     Delta=-2.83D-07
 NORM(A)=   0.12603323D+01
 Iteration Nr.  11
 **********************
 DD1Dir will call FoFMem   1 times, MxPair=        72
 NAB=    36 NAA=     0 NBB=     0.
 DE(Z)= -0.65029305     E(Z)=     -998.80434912     Delta= 5.26D-05
 NORM(A)=   0.12602626D+01
 Iteration Nr.  12
 **********************
 DD1Dir will call FoFMem   1 times, MxPair=        72
 NAB=    36 NAA=     0 NBB=     0.
 DE(Z)= -0.65026659     E(Z)=     -998.80432266     Delta= 2.65D-05
 NORM(A)=   0.12602460D+01
 Iteration Nr.  13
 **********************
 DD1Dir will call FoFMem   1 times, MxPair=        72
 NAB=    36 NAA=     0 NBB=     0.
 DE(Z)= -0.65029315     E(Z)=     -998.80434921     Delta=-2.66D-05
 NORM(A)=   0.12602448D+01
 Iteration Nr.  14
 **********************
 DD1Dir will call FoFMem   1 times, MxPair=        72
 NAB=    36 NAA=     0 NBB=     0.
 DE(Z)= -0.65025166     E(Z)=     -998.80430773     Delta= 4.15D-05
 NORM(A)=   0.12602596D+01
 Iteration Nr.  15
 **********************
 DD1Dir will call FoFMem   1 times, MxPair=        72
 NAB=    36 NAA=     0 NBB=     0.
 DE(Z)= -0.65029449     E(Z)=     -998.80435056     Delta=-4.28D-05
 NORM(A)=   0.12602599D+01
 Iteration Nr.  16
 **********************
 DD1Dir will call FoFMem   1 times, MxPair=        72
 NAB=    36 NAA=     0 NBB=     0.
 DE(Z)= -0.65027912     E(Z)=     -998.80433519     Delta= 1.54D-05
 NORM(A)=   0.12602699D+01
 Iteration Nr.  17
 **********************
 DD1Dir will call FoFMem   1 times, MxPair=        72
 NAB=    36 NAA=     0 NBB=     0.
 DE(Z)= -0.65028607     E(Z)=     -998.80434214     Delta=-6.95D-06
 NORM(A)=   0.12602717D+01
 Iteration Nr.  18
 **********************
 DD1Dir will call FoFMem   1 times, MxPair=        72
 NAB=    36 NAA=     0 NBB=     0.
 DE(Z)= -0.65028783     E(Z)=     -998.80434390     Delta=-1.76D-06
 NORM(A)=   0.12602696D+01
 Iteration Nr.  19
 **********************
 DD1Dir will call FoFMem   1 times, MxPair=        72
 NAB=    36 NAA=     0 NBB=     0.
 DE(Z)= -0.65028749     E(Z)=     -998.80434356     Delta= 3.44D-07
 NORM(A)=   0.12602669D+01
 Iteration Nr.  20
 **********************
 DD1Dir will call FoFMem   1 times, MxPair=        72
 NAB=    36 NAA=     0 NBB=     0.
 DE(Z)= -0.65028664     E(Z)=     -998.80434271     Delta= 8.48D-07
 NORM(A)=   0.12602615D+01
 Iteration Nr.  21
 **********************
 DD1Dir will call FoFMem   1 times, MxPair=        72
 NAB=    36 NAA=     0 NBB=     0.
 DE(Z)= -0.65029028     E(Z)=     -998.80434635     Delta=-3.64D-06
 NORM(A)=   0.12602590D+01
 Iteration Nr.  22
 **********************
 DD1Dir will call FoFMem   1 times, MxPair=        72
 NAB=    36 NAA=     0 NBB=     0.
 DE(Z)= -0.65028631     E(Z)=     -998.80434238     Delta= 3.97D-06
 NORM(A)=   0.12602559D+01
 Iteration Nr.  23
 **********************
 DD1Dir will call FoFMem   1 times, MxPair=        72
 NAB=    36 NAA=     0 NBB=     0.
 DE(Z)= -0.65028902     E(Z)=     -998.80434508     Delta=-2.71D-06
 NORM(A)=   0.12602531D+01
 Iteration Nr.  24
 **********************
 DD1Dir will call FoFMem   1 times, MxPair=        72
 NAB=    36 NAA=     0 NBB=     0.
 DE(Z)= -0.65028802     E(Z)=     -998.80434409     Delta= 9.97D-07
 NORM(A)=   0.12602514D+01
 Iteration Nr.  25
 **********************
 DD1Dir will call FoFMem   1 times, MxPair=        72
 NAB=    36 NAA=     0 NBB=     0.
 DE(Z)= -0.65028811     E(Z)=     -998.80434417     Delta=-8.72D-08
 NORM(A)=   0.12602494D+01
 Iteration Nr.  26
 **********************
 DD1Dir will call FoFMem   1 times, MxPair=        72
 NAB=    36 NAA=     0 NBB=     0.
 DE(Z)= -0.65028827     E(Z)=     -998.80434434     Delta=-1.69D-07
 NORM(A)=   0.12602481D+01
 Iteration Nr.  27
 **********************
 DD1Dir will call FoFMem   1 times, MxPair=        72
 NAB=    36 NAA=     0 NBB=     0.
 DE(Z)= -0.65028842     E(Z)=     -998.80434449     Delta=-1.48D-07
 NORM(A)=   0.12602474D+01
 Iteration Nr.  28
 **********************
 DD1Dir will call FoFMem   1 times, MxPair=        72
 NAB=    36 NAA=     0 NBB=     0.
 DE(Z)= -0.65028786     E(Z)=     -998.80434393     Delta= 5.61D-07
 NORM(A)=   0.12602468D+01
 Iteration Nr.  29
 **********************
 DD1Dir will call FoFMem   1 times, MxPair=        72
 NAB=    36 NAA=     0 NBB=     0.
 DE(Z)= -0.65028838     E(Z)=     -998.80434444     Delta=-5.14D-07
 NORM(A)=   0.12602463D+01
 Iteration Nr.  30
 **********************
 DD1Dir will call FoFMem   1 times, MxPair=        72
 NAB=    36 NAA=     0 NBB=     0.
 DE(Z)= -0.65028809     E(Z)=     -998.80434416     Delta= 2.84D-07
 NORM(A)=   0.12602463D+01
 Iteration Nr.  31
 **********************
 DD1Dir will call FoFMem   1 times, MxPair=        72
 NAB=    36 NAA=     0 NBB=     0.
 DE(Z)= -0.65028817     E(Z)=     -998.80434423     Delta=-7.42D-08
 NORM(A)=   0.12602462D+01
 Iteration Nr.  32
 **********************
 DD1Dir will call FoFMem   1 times, MxPair=        72
 NAB=    36 NAA=     0 NBB=     0.
 DE(Z)= -0.65028820     E(Z)=     -998.80434427     Delta=-3.37D-08
 NORM(A)=   0.12602462D+01
 Iteration Nr.  33
 **********************
 DD1Dir will call FoFMem   1 times, MxPair=        72
 NAB=    36 NAA=     0 NBB=     0.
 DE(Z)= -0.65028819     E(Z)=     -998.80434426     Delta= 8.72D-09
 NORM(A)=   0.12602463D+01
 Z-amplitudes converged.
 Discarding MO integrals.
          IDoAtm=111
          Differentiating once with respect to electric field.
                with respect to dipole field.
          Differentiating once with respect to nuclear coordinates.
 Keep R1 ints in memory in symmetry-blocked form, NReq=20960211.
          There are     1 degrees of freedom in the 1st order CPHF.  IDoFFX=0 NUNeed=     1.
 LinEq1:  Iter=  0 NonCon=     1 RMS=1.10D-02 Max=1.70D-01 NDo=     1
 AX will form     1 AO Fock derivatives at one time.
 LinEq1:  Iter=  1 NonCon=     1 RMS=1.11D-02 Max=1.72D-01 NDo=     1
 LinEq1:  Iter=  2 NonCon=     1 RMS=2.52D-03 Max=3.39D-02 NDo=     1
 LinEq1:  Iter=  3 NonCon=     1 RMS=1.02D-03 Max=1.08D-02 NDo=     1
 LinEq1:  Iter=  4 NonCon=     1 RMS=2.27D-04 Max=2.79D-03 NDo=     1
 LinEq1:  Iter=  5 NonCon=     1 RMS=6.46D-05 Max=8.06D-04 NDo=     1
 LinEq1:  Iter=  6 NonCon=     1 RMS=2.20D-05 Max=2.71D-04 NDo=     1
 LinEq1:  Iter=  7 NonCon=     1 RMS=6.47D-06 Max=8.62D-05 NDo=     1
 LinEq1:  Iter=  8 NonCon=     1 RMS=1.35D-06 Max=1.94D-05 NDo=     1
 LinEq1:  Iter=  9 NonCon=     1 RMS=3.27D-07 Max=4.27D-06 NDo=     1
 LinEq1:  Iter= 10 NonCon=     1 RMS=7.31D-08 Max=9.77D-07 NDo=     1
 LinEq1:  Iter= 11 NonCon=     1 RMS=1.57D-08 Max=2.70D-07 NDo=     1
 LinEq1:  Iter= 12 NonCon=     1 RMS=3.05D-09 Max=3.83D-08 NDo=     1
 LinEq1:  Iter= 13 NonCon=     1 RMS=6.22D-10 Max=8.22D-09 NDo=     1
 LinEq1:  Iter= 14 NonCon=     1 RMS=1.74D-10 Max=3.03D-09 NDo=     1
 LinEq1:  Iter= 15 NonCon=     0 RMS=3.49D-11 Max=5.36D-10 NDo=     1
 Linear equations converged to 1.000D-10 1.000D-09 after    15 iterations.
 End of Minotr F.D. properties file   721 does not exist.
 End of Minotr F.D. properties file   722 does not exist.
 End of Minotr F.D. properties file   788 does not exist.

 **********************************************************************

            Population analysis using the SCF Density.

 **********************************************************************

 Orbital symmetries:
       Occupied  (A1) (A1) (A1) (B2) (A1) (B1) (B2) (A1) (B2) (A1)
                 (B1) (A1) (B2) (A1) (B2) (A2) (A1) (B1) (B2)
       Virtual   (A1) (B1) (A1) (B2) (A1) (A2) (B1) (A1) (A2) (A1)
                 (B2) (B1) (A1) (B2) (A1) (B2) (A1) (B1) (A2) (A1)
                 (B2) (A1) (B1) (B2) (A2) (A1) (B2) (A1) (B1) (A1)
                 (B2) (B1) (B2) (A2) (A1) (A1) (B1) (A2) (B2) (A1)
                 (B2) (B1) (A1) (A1) (A2) (B1) (B2) (A1) (B2) (B1)
                 (A2) (A1) (B2) (A1) (B1) (B2) (A2) (A1) (A1) (B2)
                 (A1) (B2) (A2) (B2) (A2) (B1) (A1) (B2) (A1) (B1)
                 (B1) (A1) (B2) (A2) (A1) (B2) (A2) (A1) (B2) (B1)
                 (B2) (B1) (A2) (A1) (A1) (B2) (A1) (B2)
 The electronic state is 1-A1.
 Alpha  occ. eigenvalues -- -183.41394 -21.58832 -20.50991 -20.50991 -17.95605
 Alpha  occ. eigenvalues --  -17.95470 -17.95468  -2.99696  -1.93096  -1.92695
 Alpha  occ. eigenvalues --   -1.91793  -1.16466  -1.15219  -0.49567  -0.48600
 Alpha  occ. eigenvalues --   -0.44462  -0.43634  -0.43128  -0.40275
 Alpha virt. eigenvalues --   -0.04073   0.04170   0.04725   0.08552   0.12391
 Alpha virt. eigenvalues --    0.13238   0.16685   0.16834   0.17281   0.18701
 Alpha virt. eigenvalues --    0.21578   0.21813   0.23903   0.29350   0.33015
 Alpha virt. eigenvalues --    0.61571   0.63293   0.66037   0.66119   0.68800
 Alpha virt. eigenvalues --    0.73370   0.75778   0.77286   0.78456   0.79136
 Alpha virt. eigenvalues --    0.81375   0.99359   1.00783   1.21797   1.36674
 Alpha virt. eigenvalues --    1.47966   1.53087   1.55765   1.56703   1.57080
 Alpha virt. eigenvalues --    1.58800   1.61361   1.82804   1.87411   1.90718
 Alpha virt. eigenvalues --    1.98537   2.03233   2.05418   2.14512   2.16775
 Alpha virt. eigenvalues --    2.19817   2.25820   2.33374   2.49606   2.50484
 Alpha virt. eigenvalues --    2.58877   2.59099   2.76583   2.78520   3.16669
 Alpha virt. eigenvalues --    3.17439   3.20976   3.26054   3.41094   3.41793
 Alpha virt. eigenvalues --    4.22757   4.37791   5.61779   5.62835   5.63454
 Alpha virt. eigenvalues --    5.63497   5.63602   5.63879   5.65333   5.68123
 Alpha virt. eigenvalues --    5.79655   5.81362   5.83574   5.85731   6.17047
 Alpha virt. eigenvalues --    6.19783   6.79938   6.82611   6.82665   6.83201
 Alpha virt. eigenvalues --    7.03728   7.04814   7.06477   7.14583   7.37940
 Alpha virt. eigenvalues --    7.56584  45.07080  45.09321
          Condensed to atoms (all electrons):
               1          2          3
     1  Ti  19.703179   0.385353   0.385353
     2  O    0.385353   8.375563   0.002141
     3  O    0.385353   0.002141   8.375563
 Mulliken charges:
               1
     1  Ti   1.526114
     2  O   -0.763057
     3  O   -0.763057
 Sum of Mulliken charges =   0.00000
 Mulliken charges with hydrogens summed into heavy atoms:
               1
     1  Ti   1.526114
     2  O   -0.763057
     3  O   -0.763057
 Electronic spatial extent (au):  <R**2>=            201.0098
 Charge=              0.0000 electrons
 Dipole moment (field-independent basis, Debye):
    X=              0.0000    Y=              0.0000    Z=              8.6669  Tot=              8.6669
 Quadrupole moment (field-independent basis, Debye-Ang):
   XX=            -22.5462   YY=            -39.1413   ZZ=            -22.5860
   XY=              0.0000   XZ=              0.0000   YZ=              0.0000
 Traceless Quadrupole moment (field-independent basis, Debye-Ang):
   XX=              5.5450   YY=            -11.0502   ZZ=              5.5052
   XY=              0.0000   XZ=              0.0000   YZ=              0.0000
 Octapole moment (field-independent basis, Debye-Ang**2):
  XXX=              0.0000  YYY=              0.0000  ZZZ=             15.2366  XYY=              0.0000
  XXY=              0.0000  XXZ=              4.8980  XZZ=              0.0000  YZZ=              0.0000
  YYZ=              9.2393  XYZ=              0.0000
 Hexadecapole moment (field-independent basis, Debye-Ang**3):
 XXXX=            -20.3418 YYYY=           -197.7876 ZZZZ=            -51.9844 XXXY=              0.0000
 XXXZ=              0.0000 YYYX=              0.0000 YYYZ=              0.0000 ZZZX=              0.0000
 ZZZY=              0.0000 XXYY=            -33.2384 XXZZ=            -11.7721 YYZZ=            -41.1448
 XXYZ=              0.0000 YYXZ=              0.0000 ZZXY=              0.0000
 N-N= 1.230835552730D+02 E-N=-2.612719087154D+03  KE= 9.975914603846D+02
 Symmetry A1   KE= 7.286804470667D+02
 Symmetry A2   KE= 4.219076560328D+00
 Symmetry B1   KE= 9.716490308346D+01
 Symmetry B2   KE= 1.675270336741D+02
   4 Symmetry operations used in ECPInt.
 ECPInt:  NShTT=     703 NPrTT=    3029 LenC2=     698 LenP2D=    2551.
 LDataN:  DoStor=T MaxTD1= 7 Len=  274
 Calling FoFJK, ICntrl=  10002127 FMM=F ISym2X=1 I1Cent= 0 IOpClX= 0 NMat=1 NMatS=1 NMatT=0.
 ***** Axes restored to original set *****
 -------------------------------------------------------------------
 Center     Atomic                   Forces (Hartrees/Bohr)
 Number     Number              X              Y              Z
 -------------------------------------------------------------------
      1       22           0.001683547    0.000000000    0.001223861
      2        8          -0.008564857    0.000000000    0.010011968
      3        8           0.006881310    0.000000000   -0.011235828
 -------------------------------------------------------------------
 Cartesian Forces:  Max     0.011235828 RMS     0.006249664
 -----------------------------------------------------------------------------------------------
                       Internal Coordinate Forces (Hartree/Bohr or radian)
  Cent   Atom   N1       Length/X         N2         Alpha/Y        N3         Beta/Z          J
 -----------------------------------------------------------------------------------------------
      1  Ti
      2  O        1   0.010012(     1)
      3  O        1   0.010012(     2)      2   0.027247(     3)
 -----------------------------------------------------------------------------------------------
 Internal  Forces:  Max     0.027247115 RMS     0.017728360

 GradGradGradGradGradGradGradGradGradGradGradGradGradGradGradGradGradGrad
 Berny optimization.
 Search for a local minimum.
 Step number   1 out of a maximum of   20
 All quantities printed in internal units (Hartrees-Bohrs-Radians)
 Second derivative matrix not updated -- first step.
 The second derivative matrix:
                          R1        A1
           R1           0.69507
           A1           0.00000   0.25000
 ITU=  0
     Eigenvalues ---    0.25000   0.69507
 RFO step:  Lambda=-3.50256473D-03 EMin= 2.50000000D-01
 Linear search not attempted -- first point.
 Variable       Old X    -DE/DX   Delta X   Delta X   Delta X     New X
                                 (Linear)    (Quad)   (Total)
    R1        3.18127   0.02002   0.00000   0.02866   0.02866   3.20993
    A1        1.88442   0.02725   0.00000   0.10748   0.10748   1.99190
         Item               Value     Threshold  Converged?
 Maximum Force            0.027247     0.000450     NO 
 RMS     Force            0.023910     0.000300     NO 
 Maximum Displacement     0.107483     0.001800     NO 
 RMS     Displacement     0.078658     0.001200     NO 
 Predicted change in Energy=-1.772950D-03
 GradGradGradGradGradGradGradGradGradGradGradGradGradGradGradGradGradGrad

 ---------------------------------------------------------------------------------------------------
                            Z-MATRIX (ANGSTROMS AND DEGREES)
   CD    Cent   Atom    N1       Length/X        N2       Alpha/Y        N3        Beta/Z          J
 ---------------------------------------------------------------------------------------------------
      1      1  Ti
      2      2  O        1   1.698623(     1)
      3      3  O        1   1.698623(     2)      2  114.127(     3)
 ---------------------------------------------------------------------------------------------------
                         Z-Matrix orientation:                         
 ---------------------------------------------------------------------
 Center     Atomic      Atomic             Coordinates (Angstroms)
 Number     Number       Type             X           Y           Z
 ---------------------------------------------------------------------
      1         22           0        0.000000    0.000000    0.000000
      2          8           0        0.000000    0.000000    1.698623
      3          8           0        1.550229    0.000000   -0.694343
 ---------------------------------------------------------------------
                    Distance matrix (angstroms):
                    1          2          3
     1  Ti   0.000000
     2  O    1.698623   0.000000
     3  O    1.698623   2.851227   0.000000
 Stoichiometry    O2Ti
 Framework group  C2V[C2(Ti),SGV(O2)]
 Deg. of freedom     2
 Full point group                 C2V     NOp   4
 Largest Abelian subgroup         C2V     NOp   4
 Largest concise Abelian subgroup C2      NOp   2
                         Standard orientation:                         
 ---------------------------------------------------------------------
 Center     Atomic      Atomic             Coordinates (Angstroms)
 Number     Number       Type             X           Y           Z
 ---------------------------------------------------------------------
      1         22           0        0.000000    0.000000    0.388864
      2          8           0        0.000000    1.425614   -0.534688
      3          8           0        0.000000   -1.425614   -0.534688
 ---------------------------------------------------------------------
 Rotational constants (GHZ):          30.8791270           7.7732315           6.2099859
 Standard basis: def2TZVP (5D, 7F)
 There are    50 symmetry adapted cartesian basis functions of A1  symmetry.
 There are    16 symmetry adapted cartesian basis functions of A2  symmetry.
 There are    22 symmetry adapted cartesian basis functions of B1  symmetry.
 There are    36 symmetry adapted cartesian basis functions of B2  symmetry.
 There are    41 symmetry adapted basis functions of A1  symmetry.
 There are    15 symmetry adapted basis functions of A2  symmetry.
 There are    20 symmetry adapted basis functions of B1  symmetry.
 There are    31 symmetry adapted basis functions of B2  symmetry.
   107 basis functions,   204 primitive gaussians,   124 cartesian basis functions
    19 alpha electrons       19 beta electrons
       nuclear repulsion energy       121.5377667843 Hartrees.
 NAtoms=    3 NActive=    3 NUniq=    2 SFac= 2.25D+00 NAtFMM=   60 NAOKFM=F Big=F
 Integral buffers will be    131072 words long.
 Raffenetti 1 integral format.
 Two-electron integral symmetry is turned on.
 One-electron integrals computed using PRISM.
   4 Symmetry operations used in ECPInt.
 ECPInt:  NShTT=     703 NPrTT=    3029 LenC2=     696 LenP2D=    2538.
 LDataN:  DoStor=T MaxTD1= 6 Len=  172
 NBasis=   107 RedAO= T EigKep=  3.62D-03  NBF=    41    15    20    31
 NBsUse=   107 1.00D-06 EigRej= -1.00D+00 NBFU=    41    15    20    31
 Initial guess from the checkpoint file:  "TiO21aHigher2.chk"
 B after Tr=     0.000000    0.000000    0.000000
         Rot=    1.000000    0.000000    0.000000    0.000000 Ang=   0.00 deg.
 Initial guess orbital symmetries:
       Occupied  (A1) (A1) (A1) (B2) (A1) (B1) (B2) (A1) (B2) (A1)
                 (B1) (A1) (B2) (A1) (B2) (A2) (A1) (B1) (B2)
       Virtual   (A1) (B1) (A1) (B2) (A1) (A2) (B1) (A1) (A2) (A1)
                 (B2) (B1) (A1) (B2) (A1) (B2) (A1) (B1) (A2) (A1)
                 (B2) (A1) (B1) (B2) (A2) (A1) (B2) (A1) (B1) (A1)
                 (B2) (B1) (B2) (A2) (A1) (A1) (B1) (A2) (B2) (A1)
                 (B2) (B1) (A1) (A1) (A2) (B1) (B2) (A1) (B2) (B1)
                 (A2) (A1) (B2) (A1) (B1) (B2) (A2) (A1) (A1) (B2)
                 (A1) (B2) (A2) (B2) (A2) (B1) (A1) (B2) (A1) (B1)
                 (B1) (A1) (B2) (A2) (A1) (B2) (A2) (A1) (B2) (B1)
                 (B2) (B1) (A2) (A1) (A1) (B2) (A1) (B2)
 ExpMin= 3.27D-02 ExpMax= 2.12D+05 ExpMxC= 2.04D+03 IAcc=3 IRadAn=         5 AccDes= 0.00D+00
 Harris functional with IExCor=  205 and IRadAn=       5 diagonalized for initial guess.
 HarFok:  IExCor=  205 AccDes= 0.00D+00 IRadAn=         5 IDoV= 1 UseB2=F ITyADJ=14
 ICtDFT=  3500011 ScaDFX=  1.000000  1.000000  1.000000  1.000000
 FoFCou: FMM=F IPFlag=           0 FMFlag=      100000 FMFlg1=           0
         NFxFlg=           0 DoJE=T BraDBF=F KetDBF=T FulRan=T
         wScrn=  0.000000 ICntrl=       500 IOpCl=  0 I1Cent=   200000004 NGrid=           0
         NMat0=    1 NMatS0=      1 NMatT0=    0 NMatD0=    1 NMtDS0=    0 NMtDT0=    0
 Petite list used in FoFCou.
 Keep R1 ints in memory in symmetry-blocked form, NReq=20959436.
 Requested convergence on RMS density matrix=1.00D-08 within 128 cycles.
 Requested convergence on MAX density matrix=1.00D-06.
 Requested convergence on             energy=1.00D-06.
 No special actions if energy rises.
 SCF Done:  E(RHF) =  -998.154005447     A.U. after   15 cycles
            NFock= 15  Conv=0.36D-08     -V/T= 2.0006
 ExpMin= 3.27D-02 ExpMax= 2.12D+05 ExpMxC= 2.04D+03 IAcc=3 IRadAn=         5 AccDes= 0.00D+00
 HarFok:  IExCor=  205 AccDes= 0.00D+00 IRadAn=         5 IDoV=-2 UseB2=F ITyADJ=14
 ICtDFT= 12500011 ScaDFX=  1.000000  1.000000  1.000000  1.000000
 Range of M.O.s used for correlation:    12   107
 NBasis=   107 NAE=    19 NBE=    19 NFC=    11 NFV=     0
 NROrb=     96 NOA=     8 NOB=     8 NVA=    88 NVB=    88
 Semi-Direct transformation.
 ModeAB=           4 MOrb=             8 LenV=     536445043
 LASXX=       840250 LTotXX=      840250 LenRXX=     1709558
 LTotAB=      869308 MaxLAS=     3709440 LenRXY=           0
 NonZer=     2549808 LenScr=     4589568 LnRSAI=     3709440
 LnScr1=     6287360 LExtra=           0 Total=     16295926
 MaxDsk=          -1 SrtSym=           T ITran=            4
 JobTyp=0 Pass  1:  I=   1 to   8.
 (rs|ai) integrals will be sorted in core.
 Spin components of T(2) and E(2):
     alpha-alpha T2 =       0.4463435040D-01 E2=     -0.1032364226D+00
     alpha-beta  T2 =       0.1929767469D+00 E2=     -0.5001409355D+00
     beta-beta   T2 =       0.4463435040D-01 E2=     -0.1032364226D+00
 ANorm=    0.1132362772D+01
 E2 =    -0.7066137806D+00 EUMP2 =    -0.99886061922744D+03
 Keep R2 and R3 ints in memory in symmetry-blocked form, NReq=20964240.
 CIDS: In Core Option IDoMem=           1.
 Iterations=  50 Convergence= 0.100D-07
 Produce multiple copies of IABC intergrals
 Iteration Nr.   1
 **********************
 DD1Dir will call FoFMem   1 times, MxPair=        72
 NAB=    36 NAA=     0 NBB=     0.
 MP4(R+Q)=  0.11824446D-01
 E3=        0.12674144D+00        EUMP3=      -0.99873387779D+03
 E4(DQ)=   -0.59101837D-01        UMP4(DQ)=   -0.99879297962D+03
 E4(SDQ)=  -0.12760706D+00        UMP4(SDQ)=  -0.99886148484D+03
 DE(Corr)= -0.56804789     E(Corr)=     -998.72205334    
 NORM(A)=   0.11118083D+01
 Iteration Nr.   2
 **********************
 DD1Dir will call FoFMem   1 times, MxPair=        72
 NAB=    36 NAA=     0 NBB=     0.
 DE(Corr)= -0.68365330     E(CORR)=     -998.83765875     Delta=-1.16D-01
 NORM(A)=   0.11236700D+01
 Iteration Nr.   3
 **********************
 DD1Dir will call FoFMem   1 times, MxPair=        72
 NAB=    36 NAA=     0 NBB=     0.
 DE(Corr)= -0.64403802     E(CORR)=     -998.79804347     Delta= 3.96D-02
 NORM(A)=   0.11494545D+01
 Iteration Nr.   4
 **********************
 DD1Dir will call FoFMem   1 times, MxPair=        72
 NAB=    36 NAA=     0 NBB=     0.
 DE(Corr)= -0.65808688     E(CORR)=     -998.81209233     Delta=-1.40D-02
 NORM(A)=   0.11793317D+01
 Iteration Nr.   5
 **********************
 DD1Dir will call FoFMem   1 times, MxPair=        72
 NAB=    36 NAA=     0 NBB=     0.
 DE(Corr)= -0.66499493     E(CORR)=     -998.81900037     Delta=-6.91D-03
 NORM(A)=   0.12131719D+01
 Iteration Nr.   6
 **********************
 DD1Dir will call FoFMem   1 times, MxPair=        72
 NAB=    36 NAA=     0 NBB=     0.
 DE(Corr)= -0.66876950     E(CORR)=     -998.82277494     Delta=-3.77D-03
 NORM(A)=   0.12403728D+01
 Iteration Nr.   7
 **********************
 DD1Dir will call FoFMem   1 times, MxPair=        72
 NAB=    36 NAA=     0 NBB=     0.
 DE(Corr)= -0.67057841     E(CORR)=     -998.82458385     Delta=-1.81D-03
 NORM(A)=   0.12627412D+01
 Iteration Nr.   8
 **********************
 DD1Dir will call FoFMem   1 times, MxPair=        72
 NAB=    36 NAA=     0 NBB=     0.
 DE(Corr)= -0.67298213     E(CORR)=     -998.82698758     Delta=-2.40D-03
 NORM(A)=   0.12664412D+01
 Iteration Nr.   9
 **********************
 DD1Dir will call FoFMem   1 times, MxPair=        72
 NAB=    36 NAA=     0 NBB=     0.
 DE(Corr)= -0.67191691     E(CORR)=     -998.82592236     Delta= 1.07D-03
 NORM(A)=   0.12659140D+01
 Iteration Nr.  10
 **********************
 DD1Dir will call FoFMem   1 times, MxPair=        72
 NAB=    36 NAA=     0 NBB=     0.
 DE(Corr)= -0.67261152     E(CORR)=     -998.82661697     Delta=-6.95D-04
 NORM(A)=   0.12678797D+01
 Iteration Nr.  11
 **********************
 DD1Dir will call FoFMem   1 times, MxPair=        72
 NAB=    36 NAA=     0 NBB=     0.
 DE(Corr)= -0.67194382     E(CORR)=     -998.82594926     Delta= 6.68D-04
 NORM(A)=   0.12682887D+01
 Iteration Nr.  12
 **********************
 DD1Dir will call FoFMem   1 times, MxPair=        72
 NAB=    36 NAA=     0 NBB=     0.
 DE(Corr)= -0.67273217     E(CORR)=     -998.82673762     Delta=-7.88D-04
 NORM(A)=   0.12696589D+01
 Iteration Nr.  13
 **********************
 DD1Dir will call FoFMem   1 times, MxPair=        72
 NAB=    36 NAA=     0 NBB=     0.
 DE(Corr)= -0.67241484     E(CORR)=     -998.82642029     Delta= 3.17D-04
 NORM(A)=   0.12704221D+01
 Iteration Nr.  14
 **********************
 DD1Dir will call FoFMem   1 times, MxPair=        72
 NAB=    36 NAA=     0 NBB=     0.
 DE(Corr)= -0.67266420     E(CORR)=     -998.82666964     Delta=-2.49D-04
 NORM(A)=   0.12711127D+01
 Iteration Nr.  15
 **********************
 DD1Dir will call FoFMem   1 times, MxPair=        72
 NAB=    36 NAA=     0 NBB=     0.
 DE(Corr)= -0.67261184     E(CORR)=     -998.82661728     Delta= 5.24D-05
 NORM(A)=   0.12722147D+01
 Iteration Nr.  16
 **********************
 DD1Dir will call FoFMem   1 times, MxPair=        72
 NAB=    36 NAA=     0 NBB=     0.
 DE(Corr)= -0.67272031     E(CORR)=     -998.82672576     Delta=-1.08D-04
 NORM(A)=   0.12725934D+01
 Iteration Nr.  17
 **********************
 DD1Dir will call FoFMem   1 times, MxPair=        72
 NAB=    36 NAA=     0 NBB=     0.
 DE(Corr)= -0.67268935     E(CORR)=     -998.82669479     Delta= 3.10D-05
 NORM(A)=   0.12728434D+01
 Iteration Nr.  18
 **********************
 DD1Dir will call FoFMem   1 times, MxPair=        72
 NAB=    36 NAA=     0 NBB=     0.
 DE(Corr)= -0.67275000     E(CORR)=     -998.82675544     Delta=-6.07D-05
 NORM(A)=   0.12730591D+01
 Iteration Nr.  19
 **********************
 DD1Dir will call FoFMem   1 times, MxPair=        72
 NAB=    36 NAA=     0 NBB=     0.
 DE(Corr)= -0.67267538     E(CORR)=     -998.82668082     Delta= 7.46D-05
 NORM(A)=   0.12731031D+01
 Iteration Nr.  20
 **********************
 DD1Dir will call FoFMem   1 times, MxPair=        72
 NAB=    36 NAA=     0 NBB=     0.
 DE(Corr)= -0.67275021     E(CORR)=     -998.82675565     Delta=-7.48D-05
 NORM(A)=   0.12731845D+01
 Iteration Nr.  21
 **********************
 DD1Dir will call FoFMem   1 times, MxPair=        72
 NAB=    36 NAA=     0 NBB=     0.
 DE(Corr)= -0.67270378     E(CORR)=     -998.82670923     Delta= 4.64D-05
 NORM(A)=   0.12732360D+01
 Iteration Nr.  22
 **********************
 DD1Dir will call FoFMem   1 times, MxPair=        72
 NAB=    36 NAA=     0 NBB=     0.
 DE(Corr)= -0.67272829     E(CORR)=     -998.82673374     Delta=-2.45D-05
 NORM(A)=   0.12732483D+01
 Iteration Nr.  23
 **********************
 DD1Dir will call FoFMem   1 times, MxPair=        72
 NAB=    36 NAA=     0 NBB=     0.
 DE(Corr)= -0.67271799     E(CORR)=     -998.82672344     Delta= 1.03D-05
 NORM(A)=   0.12732837D+01
 Iteration Nr.  24
 **********************
 DD1Dir will call FoFMem   1 times, MxPair=        72
 NAB=    36 NAA=     0 NBB=     0.
 DE(Corr)= -0.67272722     E(CORR)=     -998.82673266     Delta=-9.23D-06
 NORM(A)=   0.12732958D+01
 Iteration Nr.  25
 **********************
 DD1Dir will call FoFMem   1 times, MxPair=        72
 NAB=    36 NAA=     0 NBB=     0.
 DE(Corr)= -0.67271605     E(CORR)=     -998.82672150     Delta= 1.12D-05
 NORM(A)=   0.12733078D+01
 Iteration Nr.  26
 **********************
 DD1Dir will call FoFMem   1 times, MxPair=        72
 NAB=    36 NAA=     0 NBB=     0.
 DE(Corr)= -0.67273154     E(CORR)=     -998.82673698     Delta=-1.55D-05
 NORM(A)=   0.12733239D+01
 Iteration Nr.  27
 **********************
 DD1Dir will call FoFMem   1 times, MxPair=        72
 NAB=    36 NAA=     0 NBB=     0.
 DE(Corr)= -0.67271799     E(CORR)=     -998.82672344     Delta= 1.35D-05
 NORM(A)=   0.12733330D+01
 Iteration Nr.  28
 **********************
 DD1Dir will call FoFMem   1 times, MxPair=        72
 NAB=    36 NAA=     0 NBB=     0.
 DE(Corr)= -0.67272638     E(CORR)=     -998.82673183     Delta=-8.39D-06
 NORM(A)=   0.12733382D+01
 Iteration Nr.  29
 **********************
 DD1Dir will call FoFMem   1 times, MxPair=        72
 NAB=    36 NAA=     0 NBB=     0.
 DE(Corr)= -0.67272276     E(CORR)=     -998.82672821     Delta= 3.62D-06
 NORM(A)=   0.12733442D+01
 Iteration Nr.  30
 **********************
 DD1Dir will call FoFMem   1 times, MxPair=        72
 NAB=    36 NAA=     0 NBB=     0.
 DE(Corr)= -0.67272485     E(CORR)=     -998.82673030     Delta=-2.10D-06
 NORM(A)=   0.12733454D+01
 Iteration Nr.  31
 **********************
 DD1Dir will call FoFMem   1 times, MxPair=        72
 NAB=    36 NAA=     0 NBB=     0.
 DE(Corr)= -0.67272290     E(CORR)=     -998.82672835     Delta= 1.95D-06
 NORM(A)=   0.12733482D+01
 Iteration Nr.  32
 **********************
 DD1Dir will call FoFMem   1 times, MxPair=        72
 NAB=    36 NAA=     0 NBB=     0.
 DE(Corr)= -0.67272553     E(CORR)=     -998.82673097     Delta=-2.62D-06
 NORM(A)=   0.12733508D+01
 Iteration Nr.  33
 **********************
 DD1Dir will call FoFMem   1 times, MxPair=        72
 NAB=    36 NAA=     0 NBB=     0.
 DE(Corr)= -0.67272325     E(CORR)=     -998.82672870     Delta= 2.28D-06
 NORM(A)=   0.12733519D+01
 Iteration Nr.  34
 **********************
 DD1Dir will call FoFMem   1 times, MxPair=        72
 NAB=    36 NAA=     0 NBB=     0.
 DE(Corr)= -0.67272492     E(CORR)=     -998.82673037     Delta=-1.67D-06
 NORM(A)=   0.12733529D+01
 Iteration Nr.  35
 **********************
 DD1Dir will call FoFMem   1 times, MxPair=        72
 NAB=    36 NAA=     0 NBB=     0.
 DE(Corr)= -0.67272431     E(CORR)=     -998.82672975     Delta= 6.14D-07
 NORM(A)=   0.12733541D+01
 Iteration Nr.  36
 **********************
 DD1Dir will call FoFMem   1 times, MxPair=        72
 NAB=    36 NAA=     0 NBB=     0.
 DE(Corr)= -0.67272478     E(CORR)=     -998.82673022     Delta=-4.73D-07
 NORM(A)=   0.12733542D+01
 Iteration Nr.  37
 **********************
 DD1Dir will call FoFMem   1 times, MxPair=        72
 NAB=    36 NAA=     0 NBB=     0.
 DE(Corr)= -0.67272444     E(CORR)=     -998.82672989     Delta= 3.38D-07
 NORM(A)=   0.12733543D+01
 Iteration Nr.  38
 **********************
 DD1Dir will call FoFMem   1 times, MxPair=        72
 NAB=    36 NAA=     0 NBB=     0.
 DE(Corr)= -0.67272481     E(CORR)=     -998.82673026     Delta=-3.71D-07
 NORM(A)=   0.12733543D+01
 Iteration Nr.  39
 **********************
 DD1Dir will call FoFMem   1 times, MxPair=        72
 NAB=    36 NAA=     0 NBB=     0.
 DE(Corr)= -0.67272453     E(CORR)=     -998.82672997     Delta= 2.84D-07
 NORM(A)=   0.12733541D+01
 Iteration Nr.  40
 **********************
 DD1Dir will call FoFMem   1 times, MxPair=        72
 NAB=    36 NAA=     0 NBB=     0.
 DE(Corr)= -0.67272477     E(CORR)=     -998.82673022     Delta=-2.44D-07
 NORM(A)=   0.12733539D+01
 Iteration Nr.  41
 **********************
 DD1Dir will call FoFMem   1 times, MxPair=        72
 NAB=    36 NAA=     0 NBB=     0.
 DE(Corr)= -0.67272461     E(CORR)=     -998.82673006     Delta= 1.62D-07
 NORM(A)=   0.12733537D+01
 Iteration Nr.  42
 **********************
 DD1Dir will call FoFMem   1 times, MxPair=        72
 NAB=    36 NAA=     0 NBB=     0.
 DE(Corr)= -0.67272469     E(CORR)=     -998.82673014     Delta=-8.25D-08
 NORM(A)=   0.12733534D+01
 Iteration Nr.  43
 **********************
 DD1Dir will call FoFMem   1 times, MxPair=        72
 NAB=    36 NAA=     0 NBB=     0.
 DE(Corr)= -0.67272460     E(CORR)=     -998.82673004     Delta= 9.62D-08
 NORM(A)=   0.12733532D+01
 Iteration Nr.  44
 **********************
 DD1Dir will call FoFMem   1 times, MxPair=        72
 NAB=    36 NAA=     0 NBB=     0.
 DE(Corr)= -0.67272470     E(CORR)=     -998.82673015     Delta=-1.06D-07
 NORM(A)=   0.12733530D+01
 Iteration Nr.  45
 **********************
 DD1Dir will call FoFMem   1 times, MxPair=        72
 NAB=    36 NAA=     0 NBB=     0.
 DE(Corr)= -0.67272457     E(CORR)=     -998.82673002     Delta= 1.30D-07
 NORM(A)=   0.12733528D+01
 Iteration Nr.  46
 **********************
 DD1Dir will call FoFMem   1 times, MxPair=        72
 NAB=    36 NAA=     0 NBB=     0.
 DE(Corr)= -0.67272465     E(CORR)=     -998.82673010     Delta=-7.68D-08
 NORM(A)=   0.12733528D+01
 Iteration Nr.  47
 **********************
 DD1Dir will call FoFMem   1 times, MxPair=        72
 NAB=    36 NAA=     0 NBB=     0.
 DE(Corr)= -0.67272459     E(CORR)=     -998.82673004     Delta= 5.81D-08
 NORM(A)=   0.12733527D+01
 Iteration Nr.  48
 **********************
 DD1Dir will call FoFMem   1 times, MxPair=        72
 NAB=    36 NAA=     0 NBB=     0.
 DE(Corr)= -0.67272462     E(CORR)=     -998.82673007     Delta=-2.92D-08
 NORM(A)=   0.12733527D+01
 Iteration Nr.  49
 **********************
 DD1Dir will call FoFMem   1 times, MxPair=        72
 NAB=    36 NAA=     0 NBB=     0.
 DE(Corr)= -0.67272460     E(CORR)=     -998.82673005     Delta= 1.61D-08
 NORM(A)=   0.12733527D+01
 Iteration Nr.  50
 **********************
 DD1Dir will call FoFMem   1 times, MxPair=        72
 NAB=    36 NAA=     0 NBB=     0.
 DE(Corr)= -0.67272462     E(CORR)=     -998.82673007     Delta=-1.64D-08
 NORM(A)=   0.12733527D+01
 *************
 *MAX. CYCLES*
 *************
 Dominant configurations:
 ***********************
 Spin Case        I    J    A    B          Value
    AA           17        22           -0.256034D+00
    AA           17        27            0.107118D+00
    AA           18        21           -0.209987D+00
    AA           18        26            0.104458D+00
 Largest amplitude= 2.56D-01
 Error termination via Lnk1e in C:\G16W\l913.exe at Sun Jul 22 13:59:58 2018.
 Job cpu time:       0 days  0 hours  6 minutes 56.0 seconds.
 Elapsed time:       0 days  0 hours  6 minutes 42.0 seconds.
 File lengths (MBytes):  RWF=   1848 Int=      0 D2E=      0 Chk=      2 Scr=      1
