 Entering Link 1 = C:\G16W\l1.exe PID=      1408.
  
 Copyright (c) 1988-2017, Gaussian, Inc.  All Rights Reserved.
  
 This is part of the Gaussian(R) 16 program.  It is based on
 the Gaussian(R) 09 system (copyright 2009, Gaussian, Inc.),
 the Gaussian(R) 03 system (copyright 2003, Gaussian, Inc.),
 the Gaussian(R) 98 system (copyright 1998, Gaussian, Inc.),
 the Gaussian(R) 94 system (copyright 1995, Gaussian, Inc.),
 the Gaussian 92(TM) system (copyright 1992, Gaussian, Inc.),
 the Gaussian 90(TM) system (copyright 1990, Gaussian, Inc.),
 the Gaussian 88(TM) system (copyright 1988, Gaussian, Inc.),
 the Gaussian 86(TM) system (copyright 1986, Carnegie Mellon
 University), and the Gaussian 82(TM) system (copyright 1983,
 Carnegie Mellon University). Gaussian is a federally registered
 trademark of Gaussian, Inc.
  
 This software contains proprietary and confidential information,
 including trade secrets, belonging to Gaussian, Inc.
  
 This software is provided under written license and may be
 used, copied, transmitted, or stored only in accord with that
 written license.
  
 The following legend is applicable only to US Government
 contracts under FAR:
  
                    RESTRICTED RIGHTS LEGEND
  
 Use, reproduction and disclosure by the US Government is
 subject to restrictions as set forth in subparagraphs (a)
 and (c) of the Commercial Computer Software - Restricted
 Rights clause in FAR 52.227-19.
  
 Gaussian, Inc.
 340 Quinnipiac St., Bldg. 40, Wallingford CT 06492
  
  
 ---------------------------------------------------------------
 Warning -- This program may not be used in any manner that
 competes with the business of Gaussian, Inc. or will provide
 assistance to any competitor of Gaussian, Inc.  The licensee
 of this program is prohibited from giving any competitor of
 Gaussian, Inc. access to this program.  By using this program,
 the user acknowledges that Gaussian, Inc. is engaged in the
 business of creating and licensing software in the field of
 computational chemistry and represents and warrants to the
 licensee that it is not a competitor of Gaussian, Inc. and that
 it will not use this program in any manner prohibited above.
 ---------------------------------------------------------------
  

 Cite this work as:
 Gaussian 16, Revision B.01,
 M. J. Frisch, G. W. Trucks, H. B. Schlegel, G. E. Scuseria, 
 M. A. Robb, J. R. Cheeseman, G. Scalmani, V. Barone, 
 G. A. Petersson, H. Nakatsuji, X. Li, M. Caricato, A. V. Marenich, 
 J. Bloino, B. G. Janesko, R. Gomperts, B. Mennucci, H. P. Hratchian, 
 J. V. Ortiz, A. F. Izmaylov, J. L. Sonnenberg, D. Williams-Young, 
 F. Ding, F. Lipparini, F. Egidi, J. Goings, B. Peng, A. Petrone, 
 T. Henderson, D. Ranasinghe, V. G. Zakrzewski, J. Gao, N. Rega, 
 G. Zheng, W. Liang, M. Hada, M. Ehara, K. Toyota, R. Fukuda, 
 J. Hasegawa, M. Ishida, T. Nakajima, Y. Honda, O. Kitao, H. Nakai, 
 T. Vreven, K. Throssell, J. A. Montgomery, Jr., J. E. Peralta, 
 F. Ogliaro, M. J. Bearpark, J. J. Heyd, E. N. Brothers, K. N. Kudin, 
 V. N. Staroverov, T. A. Keith, R. Kobayashi, J. Normand, 
 K. Raghavachari, A. P. Rendell, J. C. Burant, S. S. Iyengar, 
 J. Tomasi, M. Cossi, J. M. Millam, M. Klene, C. Adamo, R. Cammi, 
 J. W. Ochterski, R. L. Martin, K. Morokuma, O. Farkas, 
 J. B. Foresman, and D. J. Fox, Gaussian, Inc., Wallingford CT, 2016.
 
 ******************************************
 Gaussian 16:  EM64W-G16RevB.01 16-Dec-2017
                22-Jul-2018 
 ******************************************
 %nproc=2
 Will use up to    2 processors via shared memory.
 %mem=4gb
 %chk=TiO21aHigher1.7.chk
 ------------------------------------------
 # MP2 Def2TZVP opt=(noeigen,z-matrix) freq
 ------------------------------------------
 1/10=7,11=1,18=40,38=1/1,3;
 2/12=2,17=6,18=5,29=3,40=1/2;
 3/5=44,7=101,11=9,25=1,30=1,71=1/1,2,3;
 4//1;
 5/5=2,38=5/2;
 8/6=4,10=1/1;
 9/15=2,16=-3/6;
 10/5=1/2;
 6/7=2,8=2,9=2,10=2/1;
 7/12=2,29=1/1,2,3,16;
 1/10=7,11=1,18=40/3(2);
 2/29=3/2;
 99//99;
 2/29=3/2;
 3/5=44,7=101,11=9,25=1,30=1,71=1/1,2,3;
 4/5=5,16=3,69=1/1;
 5/5=2,38=5/2;
 8/6=4,10=1/1;
 9/15=2,16=-3/6;
 10/5=1/2;
 7/12=2/1,2,3,16;
 1/11=1,18=40/3(-8);
 2/29=3/2;
 6/7=2,8=2,9=2,10=2/1;
 99/9=10/99;
 -------
 TiO21a1
 -------
 Symbolic Z-matrix:
 Charge =  0 Multiplicity = 1
 Ti
 O                    1    R1
 O                    1    R2       2    A1
       Variables:
  R1                    1.68346                  
  A1                  107.96916                  
       Constants:
  R2                    1.65                     
 

 GradGradGradGradGradGradGradGradGradGradGradGradGradGradGradGradGradGrad
 Berny optimization.
 Initialization pass.
                       ----------------------------
                       !    Initial Parameters    !
                       ! (Angstroms and Degrees)  !
 ----------------------                            ----------------------
 !      Name          Value   Derivative information (Atomic Units)     !
 ------------------------------------------------------------------------
 !       R1          1.6835   estimate D2E/DX2                          !
 !       A1        107.9692   estimate D2E/DX2                          !
 !       R2          1.65     Frozen                                    !
 ------------------------------------------------------------------------
 Trust Radius=3.00D-01 FncErr=1.00D-07 GrdErr=1.00D-07 EigMax=2.50D+02 EigMin=1.00D-04
 Number of steps in this run=     20 maximum allowed number of steps=    100.
 GradGradGradGradGradGradGradGradGradGradGradGradGradGradGradGradGradGrad

 ---------------------------------------------------------------------------------------------------
                            Z-MATRIX (ANGSTROMS AND DEGREES)
   CD    Cent   Atom    N1       Length/X        N2       Alpha/Y        N3        Beta/Z          J
 ---------------------------------------------------------------------------------------------------
      1      1  Ti
      2      2  O        1   1.683455(     1)
      3      3  O        1   1.650000(     2)      2  107.969(     3)
 ---------------------------------------------------------------------------------------------------
                         Z-Matrix orientation:                         
 ---------------------------------------------------------------------
 Center     Atomic      Atomic             Coordinates (Angstroms)
 Number     Number       Type             X           Y           Z
 ---------------------------------------------------------------------
      1         22           0        0.000000    0.000000    0.000000
      2          8           0        0.000000    0.000000    1.683455
      3          8           0        1.569518    0.000000   -0.509033
 ---------------------------------------------------------------------
                    Distance matrix (angstroms):
                    1          2          3
     1  Ti   0.000000
     2  O    1.683455   0.000000
     3  O    1.650000   2.696366   0.000000
 Stoichiometry    O2Ti
 Framework group  CS[SG(O2Ti)]
 Deg. of freedom     3
 Full point group                 CS      NOp   2
 Largest Abelian subgroup         CS      NOp   2
 Largest concise Abelian subgroup C1      NOp   1
                         Standard orientation:                         
 ---------------------------------------------------------------------
 Center     Atomic      Atomic             Coordinates (Angstroms)
 Number     Number       Type             X           Y           Z
 ---------------------------------------------------------------------
      1         22           0        0.000000    0.412688    0.000000
      2          8           0        1.347883   -0.595891    0.000000
      3          8           0       -1.347883   -0.539001    0.000000
 ---------------------------------------------------------------------
 Rotational constants (GHZ):          27.4346442           8.6899613           6.5995460
 Standard basis: def2TZVP (5D, 7F)
 There are    86 symmetry adapted cartesian basis functions of A'  symmetry.
 There are    38 symmetry adapted cartesian basis functions of A"  symmetry.
 There are    72 symmetry adapted basis functions of A'  symmetry.
 There are    35 symmetry adapted basis functions of A"  symmetry.
   107 basis functions,   204 primitive gaussians,   124 cartesian basis functions
    19 alpha electrons       19 beta electrons
       nuclear repulsion energy       124.3297663285 Hartrees.
 NAtoms=    3 NActive=    3 NUniq=    3 SFac= 1.00D+00 NAtFMM=   60 NAOKFM=F Big=F
 Integral buffers will be    131072 words long.
 Raffenetti 1 integral format.
 Two-electron integral symmetry is turned on.
 One-electron integrals computed using PRISM.
   2 Symmetry operations used in ECPInt.
 ECPInt:  NShTT=     703 NPrTT=    3029 LenC2=     698 LenP2D=    2553.
 LDataN:  DoStor=T MaxTD1= 6 Len=  172
 NBasis=   107 RedAO= T EigKep=  3.41D-03  NBF=    72    35
 NBsUse=   107 1.00D-06 EigRej= -1.00D+00 NBFU=    72    35
 ExpMin= 3.27D-02 ExpMax= 2.12D+05 ExpMxC= 2.04D+03 IAcc=3 IRadAn=         5 AccDes= 0.00D+00
 Harris functional with IExCor=  205 and IRadAn=       5 diagonalized for initial guess.
 HarFok:  IExCor=  205 AccDes= 0.00D+00 IRadAn=         5 IDoV= 1 UseB2=F ITyADJ=14
 ICtDFT=  3500011 ScaDFX=  1.000000  1.000000  1.000000  1.000000
 FoFCou: FMM=F IPFlag=           0 FMFlag=      100000 FMFlg1=           0
         NFxFlg=           0 DoJE=T BraDBF=F KetDBF=T FulRan=T
         wScrn=  0.000000 ICntrl=       500 IOpCl=  0 I1Cent=   200000004 NGrid=           0
         NMat0=    1 NMatS0=      1 NMatT0=    0 NMatD0=    1 NMtDS0=    0 NMtDT0=    0
 Petite list used in FoFCou.
 Initial guess orbital symmetries:
       Occupied  (A') (A') (A') (A') (A') (A') (A") (A') (A') (A')
                 (A") (A') (A') (A') (A') (A") (A") (A') (A')
       Virtual   (A') (A") (A') (A") (A') (A') (A") (A') (A') (A")
                 (A") (A') (A') (A') (A') (A') (A') (A') (A') (A")
                 (A") (A") (A") (A') (A') (A') (A') (A') (A") (A')
                 (A') (A") (A") (A') (A') (A') (A") (A") (A') (A')
                 (A") (A') (A') (A') (A") (A") (A') (A') (A') (A")
                 (A') (A") (A') (A') (A") (A') (A") (A') (A') (A')
                 (A') (A') (A") (A') (A") (A') (A") (A') (A') (A")
                 (A") (A') (A') (A") (A') (A') (A") (A') (A') (A")
                 (A') (A") (A") (A') (A') (A') (A') (A')
 The electronic state of the initial guess is 1-A'.
 Keep R1 ints in memory in symmetry-blocked form, NReq=25194790.
 Requested convergence on RMS density matrix=1.00D-08 within 128 cycles.
 Requested convergence on MAX density matrix=1.00D-06.
 Requested convergence on             energy=1.00D-06.
 No special actions if energy rises.
 SCF Done:  E(RHF) =  -998.158165851     A.U. after   18 cycles
            NFock= 18  Conv=0.33D-08     -V/T= 2.0005
 ExpMin= 3.27D-02 ExpMax= 2.12D+05 ExpMxC= 2.04D+03 IAcc=3 IRadAn=         5 AccDes= 0.00D+00
 HarFok:  IExCor=  205 AccDes= 0.00D+00 IRadAn=         5 IDoV=-2 UseB2=F ITyADJ=14
 ICtDFT= 12500011 ScaDFX=  1.000000  1.000000  1.000000  1.000000
 Range of M.O.s used for correlation:    12   107
 NBasis=   107 NAE=    19 NBE=    19 NFC=    11 NFV=     0
 NROrb=     96 NOA=     8 NOB=     8 NVA=    88 NVB=    88
 Fully direct method using O(ONN) memory.
 JobTyp=1 Pass  1:  I=  12 to  19 NPSUse=  2 ParTrn=T ParDer=T DoDerP=T.
 Spin components of T(2) and E(2):
     alpha-alpha T2 =       0.4355034496D-01 E2=     -0.1029186232D+00
     alpha-beta  T2 =       0.1880477726D+00 E2=     -0.4973453886D+00
     beta-beta   T2 =       0.4355034496D-01 E2=     -0.1029186232D+00
 ANorm=    0.1129224717D+01
 E2 =    -0.7031826350D+00 EUMP2 =    -0.99886134848590D+03
          IDoAtm=111
          Differentiating once with respect to electric field.
                with respect to dipole field.
          Differentiating once with respect to nuclear coordinates.
 Keep R1 ints in memory in symmetry-blocked form, NReq=25195559.
          There are     1 degrees of freedom in the 1st order CPHF.  IDoFFX=0 NUNeed=     1.
 LinEq1:  Iter=  0 NonCon=     1 RMS=1.48D-02 Max=2.22D-01 NDo=     1
 AX will form     1 AO Fock derivatives at one time.
 LinEq1:  Iter=  1 NonCon=     1 RMS=7.83D-03 Max=8.75D-02 NDo=     1
 LinEq1:  Iter=  2 NonCon=     1 RMS=3.83D-03 Max=5.22D-02 NDo=     1
 LinEq1:  Iter=  3 NonCon=     1 RMS=1.72D-03 Max=1.90D-02 NDo=     1
 LinEq1:  Iter=  4 NonCon=     1 RMS=4.23D-04 Max=4.96D-03 NDo=     1
 LinEq1:  Iter=  5 NonCon=     1 RMS=1.31D-04 Max=1.82D-03 NDo=     1
 LinEq1:  Iter=  6 NonCon=     1 RMS=5.80D-05 Max=7.56D-04 NDo=     1
 LinEq1:  Iter=  7 NonCon=     1 RMS=3.83D-05 Max=5.49D-04 NDo=     1
 LinEq1:  Iter=  8 NonCon=     1 RMS=1.58D-05 Max=1.63D-04 NDo=     1
 LinEq1:  Iter=  9 NonCon=     1 RMS=3.76D-06 Max=4.75D-05 NDo=     1
 LinEq1:  Iter= 10 NonCon=     1 RMS=8.62D-07 Max=1.09D-05 NDo=     1
 LinEq1:  Iter= 11 NonCon=     1 RMS=2.00D-07 Max=2.90D-06 NDo=     1
 LinEq1:  Iter= 12 NonCon=     1 RMS=4.44D-08 Max=5.47D-07 NDo=     1
 LinEq1:  Iter= 13 NonCon=     1 RMS=1.04D-08 Max=1.05D-07 NDo=     1
 LinEq1:  Iter= 14 NonCon=     1 RMS=3.33D-09 Max=3.89D-08 NDo=     1
 LinEq1:  Iter= 15 NonCon=     1 RMS=1.10D-09 Max=1.05D-08 NDo=     1
 LinEq1:  Iter= 16 NonCon=     1 RMS=2.56D-10 Max=2.75D-09 NDo=     1
 LinEq1:  Iter= 17 NonCon=     0 RMS=6.75D-11 Max=9.23D-10 NDo=     1
 Linear equations converged to 1.000D-10 1.000D-09 after    17 iterations.
 End of Minotr F.D. properties file   721 does not exist.
 End of Minotr F.D. properties file   722 does not exist.
 End of Minotr F.D. properties file   788 does not exist.

 **********************************************************************

            Population analysis using the SCF Density.

 **********************************************************************

 Orbital symmetries:
       Occupied  (A') (A') (A') (A') (A') (A') (A") (A') (A') (A')
                 (A") (A') (A') (A') (A') (A") (A') (A") (A')
       Virtual   (A') (A") (A') (A') (A') (A") (A") (A') (A") (A')
                 (A') (A") (A') (A') (A') (A') (A') (A") (A") (A')
                 (A') (A') (A") (A') (A") (A') (A') (A') (A") (A')
                 (A') (A") (A') (A') (A") (A') (A") (A") (A') (A')
                 (A') (A") (A') (A') (A") (A") (A') (A') (A') (A")
                 (A') (A") (A') (A') (A") (A') (A") (A') (A') (A')
                 (A') (A') (A") (A') (A") (A') (A") (A') (A') (A")
                 (A") (A') (A') (A") (A') (A') (A") (A') (A') (A")
                 (A') (A") (A") (A') (A') (A') (A') (A')
 The electronic state is 1-A'.
 Alpha  occ. eigenvalues -- -183.40454 -21.57883 -20.51255 -20.50340 -17.94659
 Alpha  occ. eigenvalues --  -17.94526 -17.94508  -2.99022  -1.92874  -1.92088
 Alpha  occ. eigenvalues --   -1.91091  -1.16626  -1.14971  -0.49959  -0.48795
 Alpha  occ. eigenvalues --   -0.45149  -0.43611  -0.43002  -0.40262
 Alpha virt. eigenvalues --   -0.03868   0.04538   0.05109   0.08892   0.12532
 Alpha virt. eigenvalues --    0.14006   0.17002   0.17117   0.17375   0.18762
 Alpha virt. eigenvalues --    0.22136   0.22150   0.24686   0.29518   0.33056
 Alpha virt. eigenvalues --    0.62040   0.63559   0.66314   0.66392   0.68910
 Alpha virt. eigenvalues --    0.73451   0.76250   0.77271   0.78400   0.79204
 Alpha virt. eigenvalues --    0.81415   0.99390   1.00610   1.22250   1.37158
 Alpha virt. eigenvalues --    1.49375   1.52893   1.56206   1.57321   1.57625
 Alpha virt. eigenvalues --    1.59281   1.62211   1.82908   1.88176   1.91307
 Alpha virt. eigenvalues --    1.99541   2.04282   2.06736   2.14981   2.17174
 Alpha virt. eigenvalues --    2.20422   2.27315   2.34985   2.50721   2.51965
 Alpha virt. eigenvalues --    2.60628   2.60728   2.78005   2.80688   3.17396
 Alpha virt. eigenvalues --    3.18064   3.21837   3.27445   3.41591   3.42247
 Alpha virt. eigenvalues --    4.25869   4.42386   5.61623   5.62539   5.62716
 Alpha virt. eigenvalues --    5.63219   5.64014   5.64263   5.65613   5.68655
 Alpha virt. eigenvalues --    5.80545   5.82609   5.84673   5.87150   6.19428
 Alpha virt. eigenvalues --    6.24296   6.79994   6.82486   6.83281   6.83537
 Alpha virt. eigenvalues --    7.04795   7.05766   7.07650   7.15918   7.38624
 Alpha virt. eigenvalues --    7.58437  45.08427  45.11883
          Condensed to atoms (all electrons):
               1          2          3
     1  Ti  19.718135   0.383990   0.376477
     2  O    0.383990   8.385613   0.003132
     3  O    0.376477   0.003132   8.369056
 Mulliken charges:
               1
     1  Ti   1.521398
     2  O   -0.772734
     3  O   -0.748664
 Sum of Mulliken charges =   0.00000
 Mulliken charges with hydrogens summed into heavy atoms:
               1
     1  Ti   1.521398
     2  O   -0.772734
     3  O   -0.748664
 Electronic spatial extent (au):  <R**2>=            197.9527
 Charge=              0.0000 electrons
 Dipole moment (field-independent basis, Debye):
    X=             -0.1836    Y=              8.5741    Z=              0.0000  Tot=              8.5761
 Quadrupole moment (field-independent basis, Debye-Ang):
   XX=            -38.8007   YY=            -22.5586   ZZ=            -22.4666
   XY=              0.3855   XZ=              0.0000   YZ=              0.0000
 Traceless Quadrupole moment (field-independent basis, Debye-Ang):
   XX=            -10.8587   YY=              5.3834   ZZ=              5.4754
   XY=              0.3855   XZ=              0.0000   YZ=              0.0000
 Octapole moment (field-independent basis, Debye-Ang**2):
  XXX=             -0.7516  YYY=             15.0450  ZZZ=              0.0000  XYY=             -0.4190
  XXY=              9.0877  XXZ=              0.0000  XZZ=             -0.1700  YZZ=              4.8486
  YYZ=              0.0000  XYZ=              0.0000
 Hexadecapole moment (field-independent basis, Debye-Ang**3):
 XXXX=           -193.5481 YYYY=            -51.2801 ZZZZ=            -20.1344 XXXY=              2.2782
 XXXZ=              0.0000 YYYX=              1.9721 YYYZ=              0.0000 ZZZX=              0.0000
 ZZZY=              0.0000 XXYY=            -40.3552 XXZZ=            -32.6063 YYZZ=            -11.6201
 XXYZ=              0.0000 YYXZ=              0.0000 ZZXY=              0.5858
 N-N= 1.243297663285D+02 E-N=-2.615449494174D+03  KE= 9.976951760827D+02
 Symmetry A'   KE= 8.963059105527D+02
 Symmetry A"   KE= 1.013892655300D+02
   2 Symmetry operations used in ECPInt.
 ECPInt:  NShTT=     703 NPrTT=    3029 LenC2=     698 LenP2D=    2553.
 LDataN:  DoStor=T MaxTD1= 7 Len=  274
 Calling FoFJK, ICntrl=  10002127 FMM=F ISym2X=1 I1Cent= 0 IOpClX= 0 NMat=1 NMatS=1 NMatT=0.
 ***** Axes restored to original set *****
 -------------------------------------------------------------------
 Center     Atomic                   Forces (Hartrees/Bohr)
 Number     Number              X              Y              Z
 -------------------------------------------------------------------
      1       22          -0.025282602    0.000000000    0.007422655
      2        8           0.000137311    0.000000000    0.000585315
      3        8           0.025145291    0.000000000   -0.008007970
 -------------------------------------------------------------------
 Cartesian Forces:  Max     0.025282602 RMS     0.012432397
 -----------------------------------------------------------------------------------------------
                       Internal Coordinate Forces (Hartree/Bohr or radian)
  Cent   Atom   N1       Length/X         N2         Alpha/Y        N3         Beta/Z          J
 -----------------------------------------------------------------------------------------------
      1  Ti
      2  O        1   0.000585(     1)
      3  O        1   0.026389(     2)      2  -0.000437(     3)
 -----------------------------------------------------------------------------------------------
 Internal  Forces:  Max     0.026389271 RMS     0.015241686

 GradGradGradGradGradGradGradGradGradGradGradGradGradGradGradGradGradGrad
 Berny optimization.
 Search for a local minimum.
 Step number   1 out of a maximum of   20
 All quantities printed in internal units (Hartrees-Bohrs-Radians)
 Second derivative matrix not updated -- first step.
 The second derivative matrix:
                          R1        A1        R2
           R1           0.34754
           A1           0.00000   0.25000
           R2           0.00000   0.00000   0.38915
 ITU=  0
     Eigenvalues ---    0.25000   0.347541000.00000
 RFO step:  Lambda=-1.74891599D-06 EMin= 2.50000000D-01
 Linear search not attempted -- first point.
 Variable       Old X    -DE/DX   Delta X   Delta X   Delta X     New X
                                 (Linear)    (Quad)   (Total)
    R1        3.18127   0.00059   0.00000   0.00168   0.00168   3.18295
    A1        1.88442  -0.00044   0.00000  -0.00175  -0.00175   1.88267
    R2        3.11805   0.02639   0.00000   0.00000   0.00000   3.11805
         Item               Value     Threshold  Converged?
 Maximum Force            0.000585     0.000450     NO 
 RMS     Force            0.000516     0.000300     NO 
 Maximum Displacement     0.001747     0.001800     YES
 RMS     Displacement     0.001401     0.001200     NO 
 Predicted change in Energy=-8.744580D-07
 GradGradGradGradGradGradGradGradGradGradGradGradGradGradGradGradGradGrad

 ---------------------------------------------------------------------------------------------------
                            Z-MATRIX (ANGSTROMS AND DEGREES)
   CD    Cent   Atom    N1       Length/X        N2       Alpha/Y        N3        Beta/Z          J
 ---------------------------------------------------------------------------------------------------
      1      1  Ti
      2      2  O        1   1.684346(     1)
      3      3  O        1   1.650000(     2)      2  107.869(     3)
 ---------------------------------------------------------------------------------------------------
                         Z-Matrix orientation:                         
 ---------------------------------------------------------------------
 Center     Atomic      Atomic             Coordinates (Angstroms)
 Number     Number       Type             X           Y           Z
 ---------------------------------------------------------------------
      1         22           0        0.000000    0.000000    0.000000
      2          8           0        0.000000    0.000000    1.684346
      3          8           0        1.570404    0.000000   -0.506290
 ---------------------------------------------------------------------
                    Distance matrix (angstroms):
                    1          2          3
     1  Ti   0.000000
     2  O    1.684346   0.000000
     3  O    1.650000   2.695377   0.000000
 Stoichiometry    O2Ti
 Framework group  CS[SG(O2Ti)]
 Deg. of freedom     3
 Full point group                 CS      NOp   2
 Largest Abelian subgroup         CS      NOp   2
 Largest concise Abelian subgroup C1      NOp   1
                         Standard orientation:                         
 ---------------------------------------------------------------------
 Center     Atomic      Atomic             Coordinates (Angstroms)
 Number     Number       Type             X           Y           Z
 ---------------------------------------------------------------------
      1         22           0        0.000000    0.413296    0.000000
      2          8           0        1.347373   -0.597450    0.000000
      3          8           0       -1.347373   -0.539114    0.000000
 ---------------------------------------------------------------------
 Rotational constants (GHZ):          27.3549243           8.6962343           6.5985350
 Standard basis: def2TZVP (5D, 7F)
 There are    86 symmetry adapted cartesian basis functions of A'  symmetry.
 There are    38 symmetry adapted cartesian basis functions of A"  symmetry.
 There are    72 symmetry adapted basis functions of A'  symmetry.
 There are    35 symmetry adapted basis functions of A"  symmetry.
   107 basis functions,   204 primitive gaussians,   124 cartesian basis functions
    19 alpha electrons       19 beta electrons
       nuclear repulsion energy       124.3051008542 Hartrees.
 NAtoms=    3 NActive=    3 NUniq=    3 SFac= 1.00D+00 NAtFMM=   60 NAOKFM=F Big=F
 Integral buffers will be    131072 words long.
 Raffenetti 1 integral format.
 Two-electron integral symmetry is turned on.
 One-electron integrals computed using PRISM.
   2 Symmetry operations used in ECPInt.
 ECPInt:  NShTT=     703 NPrTT=    3029 LenC2=     698 LenP2D=    2553.
 LDataN:  DoStor=T MaxTD1= 6 Len=  172
 NBasis=   107 RedAO= T EigKep=  3.41D-03  NBF=    72    35
 NBsUse=   107 1.00D-06 EigRej= -1.00D+00 NBFU=    72    35
 Initial guess from the checkpoint file:  "TiO21aHigher1.7.chk"
 B after Tr=     0.000000    0.000000    0.000000
         Rot=    1.000000    0.000000    0.000000    0.000208 Ang=   0.02 deg.
 Initial guess orbital symmetries:
       Occupied  (A') (A') (A') (A') (A') (A') (A") (A') (A') (A')
                 (A") (A') (A') (A') (A') (A") (A') (A") (A')
       Virtual   (A') (A") (A') (A') (A') (A") (A") (A') (A") (A')
                 (A') (A") (A') (A') (A') (A') (A') (A") (A") (A')
                 (A') (A') (A") (A') (A") (A') (A') (A') (A") (A')
                 (A') (A") (A') (A') (A") (A') (A") (A") (A') (A')
                 (A') (A") (A') (A') (A") (A") (A') (A') (A') (A")
                 (A') (A") (A') (A') (A") (A') (A") (A') (A') (A')
                 (A') (A') (A") (A') (A") (A') (A") (A') (A') (A")
                 (A") (A') (A') (A") (A') (A') (A") (A') (A') (A")
                 (A') (A") (A") (A') (A') (A') (A') (A')
 Keep R1 ints in memory in symmetry-blocked form, NReq=25194790.
 Requested convergence on RMS density matrix=1.00D-08 within 128 cycles.
 Requested convergence on MAX density matrix=1.00D-06.
 Requested convergence on             energy=1.00D-06.
 No special actions if energy rises.
 SCF Done:  E(RHF) =  -998.157945046     A.U. after   12 cycles
            NFock= 12  Conv=0.44D-08     -V/T= 2.0005
 ExpMin= 3.27D-02 ExpMax= 2.12D+05 ExpMxC= 2.04D+03 IAcc=3 IRadAn=         5 AccDes= 0.00D+00
 HarFok:  IExCor=  205 AccDes= 0.00D+00 IRadAn=         5 IDoV=-2 UseB2=F ITyADJ=14
 ICtDFT= 12500011 ScaDFX=  1.000000  1.000000  1.000000  1.000000
 Range of M.O.s used for correlation:    12   107
 NBasis=   107 NAE=    19 NBE=    19 NFC=    11 NFV=     0
 NROrb=     96 NOA=     8 NOB=     8 NVA=    88 NVB=    88
 Fully direct method using O(ONN) memory.
 JobTyp=1 Pass  1:  I=  12 to  19 NPSUse=  2 ParTrn=T ParDer=T DoDerP=T.
 Spin components of T(2) and E(2):
     alpha-alpha T2 =       0.4359177806D-01 E2=     -0.1029548334D+00
     alpha-beta  T2 =       0.1882146851D+00 E2=     -0.4974945711D+00
     beta-beta   T2 =       0.4359177806D-01 E2=     -0.1029548334D+00
 ANorm=    0.1129335309D+01
 E2 =    -0.7034042379D+00 EUMP2 =    -0.99886134928392D+03
          IDoAtm=111
          Differentiating once with respect to electric field.
                with respect to dipole field.
          Differentiating once with respect to nuclear coordinates.
 Keep R1 ints in memory in symmetry-blocked form, NReq=25195559.
          There are     1 degrees of freedom in the 1st order CPHF.  IDoFFX=0 NUNeed=     1.
 LinEq1:  Iter=  0 NonCon=     1 RMS=1.48D-02 Max=2.22D-01 NDo=     1
 AX will form     1 AO Fock derivatives at one time.
 LinEq1:  Iter=  1 NonCon=     1 RMS=7.84D-03 Max=8.75D-02 NDo=     1
 LinEq1:  Iter=  2 NonCon=     1 RMS=3.84D-03 Max=5.23D-02 NDo=     1
 LinEq1:  Iter=  3 NonCon=     1 RMS=1.73D-03 Max=1.91D-02 NDo=     1
 LinEq1:  Iter=  4 NonCon=     1 RMS=4.25D-04 Max=4.97D-03 NDo=     1
 LinEq1:  Iter=  5 NonCon=     1 RMS=1.31D-04 Max=1.83D-03 NDo=     1
 LinEq1:  Iter=  6 NonCon=     1 RMS=5.89D-05 Max=7.75D-04 NDo=     1
 LinEq1:  Iter=  7 NonCon=     1 RMS=3.89D-05 Max=5.60D-04 NDo=     1
 LinEq1:  Iter=  8 NonCon=     1 RMS=1.59D-05 Max=1.65D-04 NDo=     1
 LinEq1:  Iter=  9 NonCon=     1 RMS=3.78D-06 Max=4.77D-05 NDo=     1
 LinEq1:  Iter= 10 NonCon=     1 RMS=8.68D-07 Max=1.09D-05 NDo=     1
 LinEq1:  Iter= 11 NonCon=     1 RMS=2.01D-07 Max=2.92D-06 NDo=     1
 LinEq1:  Iter= 12 NonCon=     1 RMS=4.48D-08 Max=5.51D-07 NDo=     1
 LinEq1:  Iter= 13 NonCon=     1 RMS=1.06D-08 Max=1.06D-07 NDo=     1
 LinEq1:  Iter= 14 NonCon=     1 RMS=3.41D-09 Max=3.97D-08 NDo=     1
 LinEq1:  Iter= 15 NonCon=     1 RMS=1.13D-09 Max=1.09D-08 NDo=     1
 LinEq1:  Iter= 16 NonCon=     1 RMS=2.60D-10 Max=2.77D-09 NDo=     1
 LinEq1:  Iter= 17 NonCon=     0 RMS=6.83D-11 Max=9.36D-10 NDo=     1
 Linear equations converged to 1.000D-10 1.000D-09 after    17 iterations.
 End of Minotr F.D. properties file   721 does not exist.
 End of Minotr F.D. properties file   722 does not exist.
 End of Minotr F.D. properties file   788 does not exist.
   2 Symmetry operations used in ECPInt.
 ECPInt:  NShTT=     703 NPrTT=    3029 LenC2=     698 LenP2D=    2553.
 LDataN:  DoStor=T MaxTD1= 7 Len=  274
 Calling FoFJK, ICntrl=  10002127 FMM=F ISym2X=1 I1Cent= 0 IOpClX= 0 NMat=1 NMatS=1 NMatT=0.
 ***** Axes restored to original set *****
 -------------------------------------------------------------------
 Center     Atomic                   Forces (Hartrees/Bohr)
 Number     Number              X              Y              Z
 -------------------------------------------------------------------
      1       22          -0.025084768    0.000000000    0.008162975
      2        8          -0.000001189    0.000000000   -0.000074113
      3        8           0.025085957    0.000000000   -0.008088862
 -------------------------------------------------------------------
 Cartesian Forces:  Max     0.025085957 RMS     0.012430340
 -----------------------------------------------------------------------------------------------
                       Internal Coordinate Forces (Hartree/Bohr or radian)
  Cent   Atom   N1       Length/X         N2         Alpha/Y        N3         Beta/Z          J
 -----------------------------------------------------------------------------------------------
      1  Ti
      2  O        1  -0.000074(     1)
      3  O        1   0.026358(     2)      2   0.000004(     3)
 -----------------------------------------------------------------------------------------------
 Internal  Forces:  Max     0.026357825 RMS     0.015217757

 GradGradGradGradGradGradGradGradGradGradGradGradGradGradGradGradGradGrad
 Berny optimization.
 Search for a local minimum.
 Step number   2 out of a maximum of   20
 All quantities printed in internal units (Hartrees-Bohrs-Radians)
 Update second derivatives using D2CorN and points    1    2
 DE= -7.98D-07 DEPred=-8.74D-07 R= 9.13D-01
 Trust test= 9.13D-01 RLast= 2.43D-03 DXMaxT set to 3.00D-01
 The second derivative matrix:
                          R1        A1        R2
           R1           0.36873
           A1          -0.01154   0.25113
           R2           0.00450  -0.00466   0.38915
 ITU=  0  0
     Eigenvalues ---    0.25001   0.369851000.00000
 RFO step:  Lambda= 0.00000000D+00 EMin= 2.50006571D-01
 Quartic linear search produced a step of -0.07219.
 Variable       Old X    -DE/DX   Delta X   Delta X   Delta X     New X
                                 (Linear)    (Quad)   (Total)
    R1        3.18295  -0.00007  -0.00012  -0.00008  -0.00020   3.18275
    A1        1.88267   0.00000   0.00013  -0.00011   0.00002   1.88269
    R2        3.11805   0.02636   0.00000   0.00000   0.00000   3.11805
         Item               Value     Threshold  Converged?
 Maximum Force            0.000074     0.000450     YES
 RMS     Force            0.000052     0.000300     YES
 Maximum Displacement     0.000200     0.001800     YES
 RMS     Displacement     0.000116     0.001200     YES
 Predicted change in Energy=-7.439507D-09
 Optimization completed.
    -- Stationary point found.
                       ----------------------------
                       !   Optimized Parameters   !
                       ! (Angstroms and Degrees)  !
 ----------------------                            ----------------------
 !      Name          Value   Derivative information (Atomic Units)     !
 ------------------------------------------------------------------------
 !       R1          1.6843   -DE/DX =   -0.0001                        !
 !       A1        107.8691   -DE/DX =    0.0                           !
 !       R2          1.65     -DE/DX =    0.0264                        !
 ------------------------------------------------------------------------
 GradGradGradGradGradGradGradGradGradGradGradGradGradGradGradGradGradGrad

 ---------------------------------------------------------------------------------------------------
                            Z-MATRIX (ANGSTROMS AND DEGREES)
   CD    Cent   Atom    N1       Length/X        N2       Alpha/Y        N3        Beta/Z          J
 ---------------------------------------------------------------------------------------------------
      1      1  Ti
      2      2  O        1   1.684346(     1)
      3      3  O        1   1.650000(     2)      2  107.869(     3)
 ---------------------------------------------------------------------------------------------------
                         Z-Matrix orientation:                         
 ---------------------------------------------------------------------
 Center     Atomic      Atomic             Coordinates (Angstroms)
 Number     Number       Type             X           Y           Z
 ---------------------------------------------------------------------
      1         22           0        0.000000    0.000000    0.000000
      2          8           0        0.000000    0.000000    1.684346
      3          8           0        1.570404    0.000000   -0.506290
 ---------------------------------------------------------------------
                    Distance matrix (angstroms):
                    1          2          3
     1  Ti   0.000000
     2  O    1.684346   0.000000
     3  O    1.650000   2.695377   0.000000
 Stoichiometry    O2Ti
 Framework group  CS[SG(O2Ti)]
 Deg. of freedom     3
 Full point group                 CS      NOp   2
 Largest Abelian subgroup         CS      NOp   2
 Largest concise Abelian subgroup C1      NOp   1
                         Standard orientation:                         
 ---------------------------------------------------------------------
 Center     Atomic      Atomic             Coordinates (Angstroms)
 Number     Number       Type             X           Y           Z
 ---------------------------------------------------------------------
      1         22           0        0.000000    0.413296    0.000000
      2          8           0        1.347373   -0.597450    0.000000
      3          8           0       -1.347373   -0.539114    0.000000
 ---------------------------------------------------------------------
 Rotational constants (GHZ):          27.3549243           8.6962343           6.5985350

 **********************************************************************

            Population analysis using the SCF Density.

 **********************************************************************

 Orbital symmetries:
       Occupied  (A') (A') (A') (A') (A') (A') (A") (A') (A') (A')
                 (A") (A') (A') (A') (A') (A") (A') (A") (A')
       Virtual   (A') (A") (A') (A') (A') (A") (A") (A') (A") (A')
                 (A') (A") (A') (A') (A') (A') (A') (A") (A") (A')
                 (A') (A') (A") (A') (A") (A') (A') (A') (A") (A')
                 (A') (A") (A') (A') (A") (A') (A") (A") (A') (A')
                 (A') (A") (A') (A') (A") (A") (A') (A') (A') (A")
                 (A') (A") (A') (A') (A") (A') (A") (A') (A') (A')
                 (A') (A') (A") (A') (A") (A') (A") (A') (A') (A")
                 (A") (A') (A') (A") (A') (A') (A") (A') (A') (A")
                 (A') (A") (A") (A') (A') (A') (A') (A')
 The electronic state is 1-A'.
 Alpha  occ. eigenvalues -- -183.40472 -21.57900 -20.51268 -20.50329 -17.94675
 Alpha  occ. eigenvalues --  -17.94543 -17.94525  -2.99032  -1.92879  -1.92091
 Alpha  occ. eigenvalues --   -1.91102  -1.16624  -1.14961  -0.49945  -0.48788
 Alpha  occ. eigenvalues --   -0.45147  -0.43609  -0.42978  -0.40245
 Alpha virt. eigenvalues --   -0.03874   0.04531   0.05103   0.08876   0.12530
 Alpha virt. eigenvalues --    0.13981   0.16997   0.17114   0.17372   0.18755
 Alpha virt. eigenvalues --    0.22128   0.22151   0.24654   0.29520   0.33062
 Alpha virt. eigenvalues --    0.62025   0.63555   0.66313   0.66385   0.68897
 Alpha virt. eigenvalues --    0.73446   0.76260   0.77275   0.78404   0.79208
 Alpha virt. eigenvalues --    0.81405   0.99395   1.00611   1.22245   1.37172
 Alpha virt. eigenvalues --    1.49342   1.52889   1.56182   1.57331   1.57615
 Alpha virt. eigenvalues --    1.59270   1.62196   1.82906   1.88213   1.91299
 Alpha virt. eigenvalues --    1.99507   2.04282   2.06666   2.14998   2.17179
 Alpha virt. eigenvalues --    2.20386   2.27277   2.34959   2.50616   2.51935
 Alpha virt. eigenvalues --    2.60628   2.60690   2.77973   2.80666   3.17391
 Alpha virt. eigenvalues --    3.17998   3.21812   3.27484   3.41582   3.42249
 Alpha virt. eigenvalues --    4.25755   4.42310   5.61628   5.62538   5.62708
 Alpha virt. eigenvalues --    5.63216   5.64040   5.64286   5.65616   5.68658
 Alpha virt. eigenvalues --    5.80518   5.82635   5.84592   5.87121   6.19274
 Alpha virt. eigenvalues --    6.24307   6.79996   6.82478   6.83297   6.83533
 Alpha virt. eigenvalues --    7.04737   7.05746   7.07628   7.15916   7.38609
 Alpha virt. eigenvalues --    7.58416  45.08361  45.11856
          Condensed to atoms (all electrons):
               1          2          3
     1  Ti  19.718168   0.384276   0.376578
     2  O    0.384276   8.385584   0.002972
     3  O    0.376578   0.002972   8.368596
 Mulliken charges:
               1
     1  Ti   1.520978
     2  O   -0.772832
     3  O   -0.748146
 Sum of Mulliken charges =   0.00000
 Mulliken charges with hydrogens summed into heavy atoms:
               1
     1  Ti   1.520978
     2  O   -0.772832
     3  O   -0.748146
 Electronic spatial extent (au):  <R**2>=            197.9656
 Charge=              0.0000 electrons
 Dipole moment (field-independent basis, Debye):
    X=             -0.1883    Y=              8.5833    Z=              0.0000  Tot=              8.5853
 Quadrupole moment (field-independent basis, Debye-Ang):
   XX=            -38.7917   YY=            -22.5594   ZZ=            -22.4685
   XY=              0.3953   XZ=              0.0000   YZ=              0.0000
 Traceless Quadrupole moment (field-independent basis, Debye-Ang):
   XX=            -10.8519   YY=              5.3805   ZZ=              5.4714
   XY=              0.3953   XZ=              0.0000   YZ=              0.0000
 Octapole moment (field-independent basis, Debye-Ang**2):
  XXX=             -0.7708  YYY=             15.0640  ZZZ=              0.0000  XYY=             -0.4300
  XXY=              9.0936  XXZ=              0.0000  XZZ=             -0.1744  YZZ=              4.8542
  YYZ=              0.0000  XYZ=              0.0000
 Hexadecapole moment (field-independent basis, Debye-Ang**3):
 XXXX=           -193.4239 YYYY=            -51.3828 ZZZZ=            -20.1396 XXXY=              2.3355
 XXXZ=              0.0000 YYYX=              2.0223 YYYZ=              0.0000 ZZZX=              0.0000
 ZZZY=              0.0000 XXYY=            -40.3589 XXZZ=            -32.5914 YYZZ=            -11.6371
 XXYZ=              0.0000 YYXZ=              0.0000 ZZXY=              0.6007
 N-N= 1.243051008542D+02 E-N=-2.615395893329D+03  KE= 9.976920020315D+02
 Symmetry A'   KE= 8.963029147500D+02
 Symmetry A"   KE= 1.013890872815D+02
 1|1|UNPC-DESKTOP-F4NP0R6|POpt|RMP2-FC|def2TZVP|O2Ti1|GARRETT|22-Jul-20
 18|1||# MP2 Def2TZVP opt=(noeigen,z-matrix) freq||TiO21a1||0,1|Ti|O,1,
 R1|O,1,R2,2,A1||R1=1.68434635|A1=107.86905174|R2=1.65||Version=EM64W-G
 16RevB.01|State=1-A'|HF=-998.157945|MP2=-998.8613493|RMSD=4.434e-009|R
 MSF=1.243e-002|Dipole=-2.0261127,0.,-1.5691567|PG=CS [SG(O2Ti1)]||@


 EVERYTHING'S GOT A MORAL, IF ONLY YOU CAN FIND IT.

                                    -- LEWIS CARROL, ALICE IN WONDERLAND
 Job cpu time:       0 days  0 hours  0 minutes 54.0 seconds.
 Elapsed time:       0 days  0 hours  0 minutes 41.5 seconds.
 File lengths (MBytes):  RWF=     10 Int=      0 D2E=      0 Chk=      2 Scr=      1
 Normal termination of Gaussian 16 at Sun Jul 22 14:55:04 2018.
 Link1:  Proceeding to internal job step number  2.
 ----------------------------------------------------------------------
 #N Geom=AllCheck Guess=TCheck SCRF=Check GenChk RMP2(FC)/def2TZVP Freq
 ----------------------------------------------------------------------
 1/10=4,11=1,29=7,30=1,38=1,40=1/1,3;
 2/12=2,40=1/2;
 3/5=44,7=101,11=1,14=-4,25=1,30=1,70=2,71=2,116=1,140=1/1,2,3;
 4/5=101/1;
 5/5=2,38=6,98=1/2;
 8/6=3,8=1,10=1,19=11,30=-1/1;
 9/15=3,16=-3/6;
 11/6=1,8=1,15=11,17=12,24=-1,27=1,28=-2,29=300,32=6,42=3/1,2,10;
 10/6=2,21=1/2;
 8/6=4,8=1,10=1,19=11,30=-1/11,4;
 10/5=1,20=4/2;
 11/12=2,14=11,16=1,17=2,28=-2,42=3,76=2/2,10,12;
 6/7=2,8=2,9=2,10=2/1;
 7/8=1,10=1,12=2,25=1,44=2/1,2,3,16;
 1/10=4,11=1,30=1/3;
 99//99;
 Structure from the checkpoint file:  "TiO21aHigher1.7.chk"
 -------
 TiO21a1
 -------
 Charge =  0 Multiplicity = 1
 Z-Matrix found in chk file.
 Ti
 O,1,R1
 O,1,R2,2,A1
      Variables:
 R1=1.68434635
 A1=107.86905174
      Constants:
 R2=1.65
 Recover connectivity data from disk.

 GradGradGradGradGradGradGradGradGradGradGradGradGradGradGradGradGradGrad
 Berny optimization.
 Initialization pass.
                       ----------------------------
                       !    Initial Parameters    !
                       ! (Angstroms and Degrees)  !
 ----------------------                            ----------------------
 !      Name          Value   Derivative information (Atomic Units)     !
 ------------------------------------------------------------------------
 !       R1          1.6843   calculate D2E/DX2 analytically            !
 !       A1        107.8691   calculate D2E/DX2 analytically            !
 !       R2          1.65     frozen, calculate D2E/DX2 analytically    !
 ------------------------------------------------------------------------
 Trust Radius=3.00D-01 FncErr=1.00D-07 GrdErr=1.00D-07 EigMax=2.50D+02 EigMin=1.00D-04
 Number of steps in this run=      2 maximum allowed number of steps=      2.
 GradGradGradGradGradGradGradGradGradGradGradGradGradGradGradGradGradGrad

                          Input orientation:                          
 ---------------------------------------------------------------------
 Center     Atomic      Atomic             Coordinates (Angstroms)
 Number     Number       Type             X           Y           Z
 ---------------------------------------------------------------------
      1         22           0        0.000000    0.000000    0.000000
      2          8           0        0.000000    0.000000    1.684346
      3          8           0        1.570404    0.000000   -0.506290
 ---------------------------------------------------------------------
                    Distance matrix (angstroms):
                    1          2          3
     1  Ti   0.000000
     2  O    1.684346   0.000000
     3  O    1.650000   2.695377   0.000000
 Stoichiometry    O2Ti
 Framework group  CS[SG(O2Ti)]
 Deg. of freedom     3
 Full point group                 CS      NOp   2
 Largest Abelian subgroup         CS      NOp   2
 Largest concise Abelian subgroup C1      NOp   1
                         Standard orientation:                         
 ---------------------------------------------------------------------
 Center     Atomic      Atomic             Coordinates (Angstroms)
 Number     Number       Type             X           Y           Z
 ---------------------------------------------------------------------
      1         22           0        0.000000    0.413296    0.000000
      2          8           0        1.347373   -0.597450    0.000000
      3          8           0       -1.347373   -0.539114    0.000000
 ---------------------------------------------------------------------
 Rotational constants (GHZ):          27.3549243           8.6962343           6.5985350
 Standard basis: def2TZVP (5D, 7F)
 There are    86 symmetry adapted cartesian basis functions of A'  symmetry.
 There are    38 symmetry adapted cartesian basis functions of A"  symmetry.
 There are    72 symmetry adapted basis functions of A'  symmetry.
 There are    35 symmetry adapted basis functions of A"  symmetry.
   107 basis functions,   204 primitive gaussians,   124 cartesian basis functions
    19 alpha electrons       19 beta electrons
       nuclear repulsion energy       124.3051008542 Hartrees.
 NAtoms=    3 NActive=    3 NUniq=    3 SFac= 1.00D+00 NAtFMM=   60 NAOKFM=F Big=F
 Integral buffers will be    131072 words long.
 Raffenetti 1 integral format.
 Two-electron integral symmetry is turned on.
 One-electron integrals computed using PRISM.
   2 Symmetry operations used in ECPInt.
 ECPInt:  NShTT=     703 NPrTT=    3029 LenC2=     698 LenP2D=    2553.
 LDataN:  DoStor=T MaxTD1= 6 Len=  172
 NBasis=   107 RedAO= T EigKep=  3.41D-03  NBF=    72    35
 NBsUse=   107 1.00D-06 EigRej= -1.00D+00 NBFU=    72    35
 Initial guess from the checkpoint file:  "TiO21aHigher1.7.chk"
 B after Tr=     0.000000    0.000000    0.000000
         Rot=    1.000000    0.000000    0.000000    0.000000 Ang=   0.00 deg.
 Initial guess orbital symmetries:
       Occupied  (A') (A') (A') (A') (A') (A') (A") (A') (A') (A')
                 (A") (A') (A') (A') (A') (A") (A') (A") (A')
       Virtual   (A') (A") (A') (A') (A') (A") (A") (A') (A") (A')
                 (A') (A") (A') (A') (A') (A') (A') (A") (A") (A')
                 (A') (A') (A") (A') (A") (A') (A') (A') (A") (A')
                 (A') (A") (A') (A') (A") (A') (A") (A") (A') (A')
                 (A') (A") (A') (A') (A") (A") (A') (A') (A') (A")
                 (A') (A") (A') (A') (A") (A') (A") (A') (A') (A')
                 (A') (A') (A") (A') (A") (A') (A") (A') (A') (A")
                 (A") (A') (A') (A") (A') (A') (A") (A') (A') (A")
                 (A') (A") (A") (A') (A') (A') (A') (A')
 Keep R1 ints in memory in symmetry-blocked form, NReq=25194790.
 Requested convergence on RMS density matrix=1.00D-08 within 128 cycles.
 Requested convergence on MAX density matrix=1.00D-06.
 Requested convergence on             energy=1.00D-06.
 No special actions if energy rises.
 SCF Done:  E(RHF) =  -998.157945046     A.U. after    1 cycles
            NFock=  1  Conv=0.70D-09     -V/T= 2.0005
 ExpMin= 3.27D-02 ExpMax= 2.12D+05 ExpMxC= 2.04D+03 IAcc=3 IRadAn=         5 AccDes= 0.00D+00
 HarFok:  IExCor=  205 AccDes= 0.00D+00 IRadAn=         5 IDoV=-2 UseB2=F ITyADJ=14
 ICtDFT= 12500011 ScaDFX=  1.000000  1.000000  1.000000  1.000000
 Range of M.O.s used for correlation:    12   107
 NBasis=   107 NAE=    19 NBE=    19 NFC=    11 NFV=     0
 NROrb=     96 NOA=     8 NOB=     8 NVA=    88 NVB=    88
 Disk-based method using ON**2 memory for  8 occupieds at a time.
 Permanent disk used for amplitudes=     3450172 words.
 Estimated scratch disk usage=    28507361 words.
 Actual    scratch disk usage=    27760865 words.
 JobTyp=1 Pass  1:  I=  12 to  19 NPSUse=  2 ParTrn=T ParDer=T DoDerP=T.
 (rs|ai) integrals will be sorted in core.
 Spin components of T(2) and E(2):
     alpha-alpha T2 =       0.4359177868D-01 E2=     -0.1029548342D+00
     alpha-beta  T2 =       0.1882146866D+00 E2=     -0.4974945724D+00
     beta-beta   T2 =       0.4359177868D-01 E2=     -0.1029548342D+00
 ANorm=    0.1129335311D+01
 E2 =    -0.7034042407D+00 EUMP2 =    -0.99886134928676D+03
   2 Symmetry operations used in ECPInt.
 ECPInt:  NShTT=     703 NPrTT=    3029 LenC2=     698 LenP2D=    2553.
 LDataN:  DoStor=T MaxTD1= 7 Len=  274
 G2DrvN: will do     4 centers at a time, making    1 passes.
 Calling FoFCou, ICntrl=  3107 FMM=F I1Cent=   0 AccDes= 0.00D+00.
 End of G2Drv F.D. properties file   721 does not exist.
 End of G2Drv F.D. properties file   722 does not exist.
 End of G2Drv F.D. properties file   788 does not exist.
          IDoAtm=111
          Differentiating once with respect to electric field.
                with respect to dipole field.
          Differentiating once with respect to nuclear coordinates.
 Keep R1 ints in memory in symmetry-blocked form, NReq=25195559.
          There are    12 degrees of freedom in the 1st order CPHF.  IDoFFX=6 NUNeed=    12.
      9 vectors produced by pass  0 Test12= 1.39D-14 8.33D-09 XBig12= 1.61D+01 1.42D+00.
 AX will form     9 AO Fock derivatives at one time.
      9 vectors produced by pass  1 Test12= 1.39D-14 8.33D-09 XBig12= 4.54D+00 6.86D-01.
      9 vectors produced by pass  2 Test12= 1.39D-14 8.33D-09 XBig12= 3.56D-01 1.73D-01.
      9 vectors produced by pass  3 Test12= 1.39D-14 8.33D-09 XBig12= 2.65D-02 6.98D-02.
      9 vectors produced by pass  4 Test12= 1.39D-14 8.33D-09 XBig12= 9.81D-04 8.88D-03.
      9 vectors produced by pass  5 Test12= 1.39D-14 8.33D-09 XBig12= 3.21D-05 2.06D-03.
      9 vectors produced by pass  6 Test12= 1.39D-14 8.33D-09 XBig12= 8.29D-07 2.85D-04.
      9 vectors produced by pass  7 Test12= 1.39D-14 8.33D-09 XBig12= 1.03D-08 2.48D-05.
      9 vectors produced by pass  8 Test12= 1.39D-14 8.33D-09 XBig12= 1.41D-10 5.95D-06.
      5 vectors produced by pass  9 Test12= 1.39D-14 8.33D-09 XBig12= 3.42D-12 8.82D-07.
      3 vectors produced by pass 10 Test12= 1.39D-14 8.33D-09 XBig12= 4.31D-14 5.13D-08.
 InvSVY:  IOpt=1 It=  1 EMax= 7.77D-16
 Solved reduced A of dimension    89 with     9 vectors.
 End of Minotr F.D. properties file   721 does not exist.
 End of Minotr F.D. properties file   722 does not exist.
 End of Minotr F.D. properties file   788 does not exist.
 MDV=   536870912.
 Form MO integral derivatives with frozen-active canonical formalism.
 Discarding MO integrals.
 Reordered first order wavefunction length =      5591168
 In DefCFB: NBatch=  1 ICI= 19 ICA= 88 LFMax= 44
            Large arrays: LIAPS=    88736384 LIARS=    75467392 words.
 Semi-Direct transformation.
 ModeAB=           2 MOrb=            19 LenV=     536407247
 LASXX=     10151206 LTotXX=    10151206 LenRXX=    10151206
 LTotAB=    10440956 MaxLAS=    15755750 LenRXY=    15755750
 NonZer=    20302412 LenScr=    31232000 LnRSAI=           0
 LnScr1=           0 LExtra=           0 Total=     57138956
 MaxDsk=          -1 SrtSym=           F ITran=            4
 JobTyp=0 Pass  1:  I=   1 to  19.
 (rs|ai) integrals will be sorted in core.
 Spin components of T(2) and E(2):
     alpha-alpha T2 =       0.4359177868D-01 E2=     -0.1029548342D+00
     alpha-beta  T2 =       0.1882146866D+00 E2=     -0.4974945724D+00
     beta-beta   T2 =       0.4359177868D-01 E2=     -0.1029548342D+00
 ANorm=    0.1597121313D+01
 E2 =    -0.7034042407D+00 EUMP2 =    -0.99886134928676D+03
          IDoAtm=111
          Differentiating once with respect to electric field.
                with respect to dipole field.
          Differentiating once with respect to nuclear coordinates.
          There are     1 degrees of freedom in the 1st order CPHF.  IDoFFX=0 NUNeed=     1.
 LinEq1:  Iter=  0 NonCon=     1 RMS=1.48D-02 Max=2.22D-01 NDo=     1
 LinEq1:  Iter=  1 NonCon=     1 RMS=7.84D-03 Max=8.75D-02 NDo=     1
 LinEq1:  Iter=  2 NonCon=     1 RMS=3.84D-03 Max=5.23D-02 NDo=     1
 LinEq1:  Iter=  3 NonCon=     1 RMS=1.73D-03 Max=1.91D-02 NDo=     1
 LinEq1:  Iter=  4 NonCon=     1 RMS=4.25D-04 Max=4.97D-03 NDo=     1
 LinEq1:  Iter=  5 NonCon=     1 RMS=1.31D-04 Max=1.83D-03 NDo=     1
 LinEq1:  Iter=  6 NonCon=     1 RMS=5.89D-05 Max=7.75D-04 NDo=     1
 LinEq1:  Iter=  7 NonCon=     1 RMS=3.89D-05 Max=5.60D-04 NDo=     1
 LinEq1:  Iter=  8 NonCon=     1 RMS=1.59D-05 Max=1.65D-04 NDo=     1
 LinEq1:  Iter=  9 NonCon=     1 RMS=3.78D-06 Max=4.77D-05 NDo=     1
 LinEq1:  Iter= 10 NonCon=     1 RMS=8.68D-07 Max=1.09D-05 NDo=     1
 LinEq1:  Iter= 11 NonCon=     1 RMS=2.01D-07 Max=2.92D-06 NDo=     1
 LinEq1:  Iter= 12 NonCon=     1 RMS=4.48D-08 Max=5.51D-07 NDo=     1
 LinEq1:  Iter= 13 NonCon=     1 RMS=1.06D-08 Max=1.06D-07 NDo=     1
 LinEq1:  Iter= 14 NonCon=     1 RMS=3.41D-09 Max=3.97D-08 NDo=     1
 LinEq1:  Iter= 15 NonCon=     1 RMS=1.13D-09 Max=1.09D-08 NDo=     1
 LinEq1:  Iter= 16 NonCon=     1 RMS=2.60D-10 Max=2.77D-09 NDo=     1
 LinEq1:  Iter= 17 NonCon=     0 RMS=6.83D-11 Max=9.36D-10 NDo=     1
 Linear equations converged to 1.000D-10 1.000D-09 after    17 iterations.
 End of Minotr F.D. properties file   721 does not exist.
 End of Minotr F.D. properties file   722 does not exist.
 End of Minotr F.D. properties file   788 does not exist.
 Symmetrizing basis deriv contribution to polar:
 IMax=3 JMax=2 DiffMx= 0.00D+00
 G2DrvN: will do     4 centers at a time, making    1 passes.
 Calling FoFCou, ICntrl=  3107 FMM=F I1Cent=   0 AccDes= 0.00D+00.
 End of G2Drv F.D. properties file   721 does not exist.
 End of G2Drv F.D. properties file   722 does not exist.
 End of G2Drv F.D. properties file   788 does not exist.
 R2 and R3 integrals will be kept in memory, NReq=    62010250.
 DD1Dir will call FoFMem   1 times, MxPair=       380
 NAB=   190 NAA=     0 NBB=     0.
 Discarding MO integrals.

 **********************************************************************

            Population analysis using the SCF Density.

 **********************************************************************

 Orbital symmetries:
       Occupied  (A') (A') (A') (A') (A') (A') (A") (A') (A') (A')
                 (A") (A') (A') (A') (A') (A") (A') (A") (A')
       Virtual   (A') (A") (A') (A') (A') (A") (A") (A') (A") (A')
                 (A') (A") (A') (A') (A') (A') (A') (A") (A") (A')
                 (A') (A') (A") (A') (A") (A') (A') (A') (A") (A')
                 (A') (A") (A') (A') (A") (A') (A") (A") (A') (A')
                 (A') (A") (A') (A') (A") (A") (A') (A') (A') (A")
                 (A') (A") (A') (A') (A") (A') (A") (A') (A') (A')
                 (A') (A') (A") (A') (A") (A') (A") (A') (A') (A")
                 (A") (A') (A') (A") (A') (A') (A") (A') (A') (A")
                 (A') (A") (A") (A') (A') (A') (A') (A')
 The electronic state is 1-A'.
 Alpha  occ. eigenvalues -- -183.40472 -21.57900 -20.51268 -20.50329 -17.94675
 Alpha  occ. eigenvalues --  -17.94543 -17.94525  -2.99032  -1.92879  -1.92091
 Alpha  occ. eigenvalues --   -1.91102  -1.16624  -1.14961  -0.49945  -0.48788
 Alpha  occ. eigenvalues --   -0.45147  -0.43609  -0.42978  -0.40245
 Alpha virt. eigenvalues --   -0.03874   0.04531   0.05103   0.08876   0.12530
 Alpha virt. eigenvalues --    0.13981   0.16997   0.17114   0.17372   0.18755
 Alpha virt. eigenvalues --    0.22128   0.22151   0.24654   0.29520   0.33062
 Alpha virt. eigenvalues --    0.62025   0.63555   0.66313   0.66385   0.68897
 Alpha virt. eigenvalues --    0.73446   0.76260   0.77275   0.78404   0.79208
 Alpha virt. eigenvalues --    0.81405   0.99395   1.00611   1.22245   1.37172
 Alpha virt. eigenvalues --    1.49342   1.52889   1.56182   1.57331   1.57615
 Alpha virt. eigenvalues --    1.59270   1.62196   1.82906   1.88213   1.91299
 Alpha virt. eigenvalues --    1.99507   2.04282   2.06666   2.14998   2.17179
 Alpha virt. eigenvalues --    2.20386   2.27277   2.34959   2.50616   2.51935
 Alpha virt. eigenvalues --    2.60628   2.60690   2.77973   2.80666   3.17391
 Alpha virt. eigenvalues --    3.17998   3.21812   3.27484   3.41582   3.42249
 Alpha virt. eigenvalues --    4.25755   4.42310   5.61628   5.62538   5.62708
 Alpha virt. eigenvalues --    5.63216   5.64040   5.64286   5.65616   5.68658
 Alpha virt. eigenvalues --    5.80518   5.82635   5.84592   5.87121   6.19274
 Alpha virt. eigenvalues --    6.24307   6.79996   6.82478   6.83297   6.83533
 Alpha virt. eigenvalues --    7.04737   7.05746   7.07628   7.15916   7.38609
 Alpha virt. eigenvalues --    7.58416  45.08361  45.11856
          Condensed to atoms (all electrons):
               1          2          3
     1  Ti  19.718168   0.384276   0.376578
     2  O    0.384276   8.385584   0.002972
     3  O    0.376578   0.002972   8.368596
 Mulliken charges:
               1
     1  Ti   1.520978
     2  O   -0.772832
     3  O   -0.748146
 Sum of Mulliken charges =   0.00000
 Mulliken charges with hydrogens summed into heavy atoms:
               1
     1  Ti   1.520978
     2  O   -0.772832
     3  O   -0.748146
 APT charges:
               1
     1  Ti   1.400825
     2  O   -0.690653
     3  O   -0.710172
 Sum of APT charges =   0.00000
 APT charges with hydrogens summed into heavy atoms:
               1
     1  Ti   1.400825
     2  O   -0.690653
     3  O   -0.710172
 Electronic spatial extent (au):  <R**2>=            197.9656
 Charge=              0.0000 electrons
 Dipole moment (field-independent basis, Debye):
    X=             -0.1883    Y=              8.5833    Z=              0.0000  Tot=              8.5853
 Quadrupole moment (field-independent basis, Debye-Ang):
   XX=            -38.7917   YY=            -22.5594   ZZ=            -22.4685
   XY=              0.3953   XZ=              0.0000   YZ=              0.0000
 Traceless Quadrupole moment (field-independent basis, Debye-Ang):
   XX=            -10.8519   YY=              5.3805   ZZ=              5.4714
   XY=              0.3953   XZ=              0.0000   YZ=              0.0000
 Octapole moment (field-independent basis, Debye-Ang**2):
  XXX=             -0.7708  YYY=             15.0640  ZZZ=              0.0000  XYY=             -0.4300
  XXY=              9.0936  XXZ=              0.0000  XZZ=             -0.1744  YZZ=              4.8542
  YYZ=              0.0000  XYZ=              0.0000
 Hexadecapole moment (field-independent basis, Debye-Ang**3):
 XXXX=           -193.4239 YYYY=            -51.3828 ZZZZ=            -20.1396 XXXY=              2.3355
 XXXZ=              0.0000 YYYX=              2.0223 YYYZ=              0.0000 ZZZX=              0.0000
 ZZZY=              0.0000 XXYY=            -40.3589 XXZZ=            -32.5914 YYZZ=            -11.6371
 XXYZ=              0.0000 YYXZ=              0.0000 ZZXY=              0.6007
 N-N= 1.243051008542D+02 E-N=-2.615395893393D+03  KE= 9.976920020805D+02
 Symmetry A'   KE= 8.963029147945D+02
 Symmetry A"   KE= 1.013890872860D+02
  Exact polarizability:  56.459  -1.072  27.926   0.000   0.000  19.413
 Approx polarizability:  41.610  -0.611  29.742   0.000   0.000  16.347
   2 Symmetry operations used in ECPInt.
 ECPInt:  NShTT=     703 NPrTT=    3029 LenC2=     698 LenP2D=    2553.
 LDataN:  DoStor=T MaxTD1= 8 Len=  415
 Calling FoFJK, ICntrl=  10100127 FMM=F ISym2X=1 I1Cent= 0 IOpClX= 0 NMat=1 NMatS=1 NMatT=0.
 Full mass-weighted force constant matrix:
 Low frequencies --- -136.4550  -92.8648   -0.0066   -0.0051   -0.0050    6.9928
 Low frequencies ---  316.2615  915.0179 1007.8306
 Diagonal vibrational polarizability:
        7.6871369       1.5253804       0.0000000
 Harmonic frequencies (cm**-1), IR intensities (KM/Mole), Raman scattering
 activities (A**4/AMU), depolarization ratios for plane and unpolarized
 incident light, reduced masses (AMU), force constants (mDyne/A),
 and normal coordinates:
                      1                      2                      3
                     A'                     A'                     A'
 Frequencies --    315.1620               915.0114              1007.8305
 Red. masses --     18.3758                18.9281                19.6130
 Frc consts  --      1.0754                 9.3370                11.7373
 IR Inten    --      5.0005                68.2308               213.8013
  Atom  AN      X      Y      Z        X      Y      Z        X      Y      Z
     1  22     0.00  -0.27   0.00    -0.18   0.25   0.00    -0.30  -0.15   0.00
     2   8     0.55   0.39   0.00     0.72  -0.57   0.00     0.17  -0.11   0.00
     3   8    -0.54   0.42   0.00    -0.19  -0.17   0.00     0.74   0.54   0.00

 -------------------
 - Thermochemistry -
 -------------------
 Temperature   298.150 Kelvin.  Pressure   1.00000 Atm.
 Atom     1 has atomic number 22 and mass  47.94795
 Atom     2 has atomic number  8 and mass  15.99491
 Atom     3 has atomic number  8 and mass  15.99491
 Molecular mass:    79.93778 amu.
 Principal axes and moments of inertia in atomic units:
                           1         2         3
     Eigenvalues --    65.97500 207.53134 273.50635
           X            0.99950   0.03173   0.00000
           Y           -0.03173   0.99950   0.00000
           Z            0.00000   0.00000   1.00000
 This molecule is an asymmetric top.
 Rotational symmetry number  1.
 Rotational temperatures (Kelvin)      1.31283     0.41735     0.31668
 Rotational constants (GHZ):          27.35492     8.69623     6.59853
 Zero-point vibrational energy      13386.2 (Joules/Mol)
                                    3.19939 (Kcal/Mol)
 Warning -- explicit consideration of   1 degrees of freedom as
           vibrations may cause significant error
 Vibrational temperatures:    453.45  1316.50  1450.04
          (Kelvin)
 
 Zero-point correction=                           0.005099 (Hartree/Particle)
 Thermal correction to Energy=                    0.008419
 Thermal correction to Enthalpy=                  0.009364
 Thermal correction to Gibbs Free Energy=        -0.020783
 Sum of electronic and zero-point Energies=           -998.856251
 Sum of electronic and thermal Energies=              -998.852930
 Sum of electronic and thermal Enthalpies=            -998.851986
 Sum of electronic and thermal Free Energies=         -998.882133
 
                     E (Thermal)             CV                S
                      KCal/Mol        Cal/Mol-Kelvin    Cal/Mol-Kelvin
 Total                    5.283              8.455             63.450
 Electronic               0.000              0.000              0.000
 Translational            0.889              2.981             39.051
 Rotational               0.889              2.981             22.842
 Vibrational              3.506              2.493              1.557
 Vibration     1          0.703              1.645              1.335
                       Q            Log10(Q)             Ln(Q)
 Total Bot       0.362834D+10          9.559708         22.012040
 Total V=0       0.803294D+12         11.904875         27.411987
 Vib (Bot)       0.589610D-02         -2.229435         -5.133464
 Vib (Bot)    1  0.598177D+00         -0.223170         -0.513868
 Vib (V=0)       0.130536D+01          0.115732          0.266483
 Vib (V=0)    1  0.127963D+01          0.107083          0.246567
 Electronic      0.100000D+01          0.000000          0.000000
 Translational   0.280920D+08          7.448582         17.150994
 Rotational      0.219059D+05          4.340561          9.994511
 ***** Axes restored to original set *****
 -------------------------------------------------------------------
 Center     Atomic                   Forces (Hartrees/Bohr)
 Number     Number              X              Y              Z
 -------------------------------------------------------------------
      1       22          -0.025084773    0.000000000    0.008162971
      2        8          -0.000001188    0.000000000   -0.000074107
      3        8           0.025085961    0.000000000   -0.008088864
 -------------------------------------------------------------------
 Cartesian Forces:  Max     0.025085961 RMS     0.012430342
 -----------------------------------------------------------------------------------------------
                       Internal Coordinate Forces (Hartree/Bohr or radian)
  Cent   Atom   N1       Length/X         N2         Alpha/Y        N3         Beta/Z          J
 -----------------------------------------------------------------------------------------------
      1  Ti
      2  O        1  -0.000074(     1)
      3  O        1   0.026358(     2)      2   0.000004(     3)
 -----------------------------------------------------------------------------------------------
 Internal  Forces:  Max     0.026357829 RMS     0.015217760

 GradGradGradGradGradGradGradGradGradGradGradGradGradGradGradGradGradGrad
 Berny optimization.
 Search for a local minimum.
 Step number   1 out of a maximum of    2
 All quantities printed in internal units (Hartrees-Bohrs-Radians)
 Second derivative matrix not updated -- analytic derivatives used.
 The second derivative matrix:
                          R1        A1        R2
           R1           0.38271
           A1          -0.00746   0.24506
           R2           0.01050  -0.00768   0.45440
 ITU=  0
     Eigenvalues ---    0.24466   0.383111000.00000
 Angle between quadratic step and forces=   0.09 degrees.
 Linear search not attempted -- first point.
 Variable       Old X    -DE/DX   Delta X   Delta X   Delta X     New X
                                 (Linear)    (Quad)   (Total)
    R1        3.18295  -0.00007   0.00000  -0.00019  -0.00019   3.18276
    A1        1.88267   0.00000   0.00000   0.00001   0.00001   1.88268
    R2        3.11805   0.02636   0.00000   0.00000   0.00000   3.11805
         Item               Value     Threshold  Converged?
 Maximum Force            0.000074     0.000450     YES
 RMS     Force            0.000052     0.000300     YES
 Maximum Displacement     0.000193     0.001800     YES
 RMS     Displacement     0.000112     0.001200     YES
 Predicted change in Energy=-7.186309D-09
 Optimization completed.
    -- Stationary point found.
                       ----------------------------
                       !   Optimized Parameters   !
                       ! (Angstroms and Degrees)  !
 ----------------------                            ----------------------
 !      Name          Value   Derivative information (Atomic Units)     !
 ------------------------------------------------------------------------
 !       R1          1.6843   -DE/DX =   -0.0001                        !
 !       A1        107.8691   -DE/DX =    0.0                           !
 !       R2          1.65     -DE/DX =    0.0264                        !
 ------------------------------------------------------------------------
 GradGradGradGradGradGradGradGradGradGradGradGradGradGradGradGradGradGrad


 ----------------------------------------------------------------------

 Electric dipole moment (input orientation):
 (Debye = 10**-18 statcoulomb cm , SI units = C m)
                  (au)            (Debye)         (10**-30 SI)
   Tot        0.256269D+01      0.651371D+01      0.217274D+02
   x         -0.202611D+01     -0.514986D+01     -0.171781D+02
   y          0.000000D+00      0.000000D+00      0.000000D+00
   z         -0.156916D+01     -0.398840D+01     -0.133039D+02

 Dipole polarizability, Alpha (input orientation).
 (esu units = cm**3 , SI units = C**2 m**2 J**-1)
 Alpha(0;0):
               (au)            (10**-24 esu)      (10**-40 SI)
   iso        0.345993D+02      0.512709D+01      0.570466D+01
   aniso      0.336590D+02      0.498775D+01      0.554962D+01
   xx         0.371715D+02      0.550825D+01      0.612875D+01
   yx         0.000000D+00      0.000000D+00      0.000000D+00
   yy         0.194134D+02      0.287677D+01      0.320084D+01
   zx        -0.133968D+02     -0.198520D+01     -0.220884D+01
   zy         0.000000D+00      0.000000D+00      0.000000D+00
   zz         0.472131D+02      0.699626D+01      0.778439D+01

 ----------------------------------------------------------------------

 Dipole orientation:
    22          0.00000000          0.00000000          0.00000000
     8         -2.51650394          0.00000000         -1.94894834
     8          2.57353161          0.00000000         -1.76044286

 Electric dipole moment (dipole orientation):
 (Debye = 10**-18 statcoulomb cm , SI units = C m)
                  (au)            (Debye)         (10**-30 SI)
   Tot        0.256269D+01      0.651371D+01      0.217274D+02
   x          0.000000D+00      0.000000D+00      0.000000D+00
   y          0.000000D+00      0.000000D+00      0.000000D+00
   z          0.256269D+01      0.651371D+01      0.217274D+02

 Dipole polarizability, Alpha (dipole orientation).
 (esu units = cm**3 , SI units = C**2 m**2 J**-1)
 Alpha(0;0):
               (au)            (10**-24 esu)      (10**-40 SI)
   iso        0.345993D+02      0.512709D+01      0.570466D+01
   aniso      0.336590D+02      0.498775D+01      0.554962D+01
   xx         0.564192D+02      0.836046D+01      0.930226D+01
   yx         0.000000D+00      0.000000D+00      0.000000D+00
   yy         0.194134D+02      0.287677D+01      0.320084D+01
   zx         0.150985D+01      0.223737D+00      0.248941D+00
   zy         0.000000D+00      0.000000D+00      0.000000D+00
   zz         0.279655D+02      0.414405D+01      0.461088D+01

 ----------------------------------------------------------------------
 1|1|UNPC-DESKTOP-F4NP0R6|Freq|RMP2-FC|def2TZVP|O2Ti1|GARRETT|22-Jul-20
 18|1||#N Geom=AllCheck Guess=TCheck SCRF=Check GenChk RMP2(FC)/def2TZV
 P Freq||TiO21a1||0,1|Ti|O,1,R1|O,1,R2,2,A1||R1=1.68434635|A1=107.86905
 174|R2=1.65||Version=EM64W-G16RevB.01|State=1-A'|HF=-998.157945|MP2=-9
 98.8613493|RMSD=7.000e-010|RMSF=1.243e-002|ZeroPoint=0.0050985|Thermal
 =0.0084194|Dipole=-2.0261127,0.,-1.5691567|DipoleDeriv=1.1718197,0.,-0
 .9478244,0.,1.3809451,0.,-0.8982577,0.,1.6497113,-0.4006411,0.,0.22345
 45,0.,-0.6982087,0.,0.5505875,0.,-0.9731097,-0.7711786,0.,0.7243699,0.
 ,-0.6827364,0.,0.3476703,0.,-0.6766016|Polar=37.1715092,0.,19.4133978,
 -13.3968167,0.,47.2131122|PG=CS [SG(O2Ti1)]|NImag=0||0.45858800,0.,-0.
 00842902,-0.08998231,0.,0.43733954,-0.03408499,0.,-0.02510427,0.024211
 79,0.,-0.00002382,0.,0.,0.00002367,-0.01306784,0.,-0.38176333,0.002343
 80,0.,0.38270648,-0.42450301,0.,0.11508658,0.00987320,0.,0.01072405,0.
 41462981,0.,0.00845283,0.,0.,0.00000015,0.,0.,-0.00845298,0.10305015,0
 .,-0.05557621,0.02276048,0.,-0.00094315,-0.12581062,0.,0.05651937||0.0
 2508477,0.,-0.00816297,0.00000119,0.,0.00007411,-0.02508596,0.,0.00808
 886|||@


 HE THAT FOLLOWS NATURE IS NEVER LOST.

                             -- BACON
 Job cpu time:       0 days  0 hours  6 minutes  3.0 seconds.
 Elapsed time:       0 days  0 hours  5 minutes 53.3 seconds.
 File lengths (MBytes):  RWF=   1341 Int=      0 D2E=      0 Chk=      2 Scr=      1
 Normal termination of Gaussian 16 at Sun Jul 22 15:01:07 2018.
