 Entering Link 1 = C:\G16W\l1.exe PID=      4800.
  
 Copyright (c) 1988-2017, Gaussian, Inc.  All Rights Reserved.
  
 This is part of the Gaussian(R) 16 program.  It is based on
 the Gaussian(R) 09 system (copyright 2009, Gaussian, Inc.),
 the Gaussian(R) 03 system (copyright 2003, Gaussian, Inc.),
 the Gaussian(R) 98 system (copyright 1998, Gaussian, Inc.),
 the Gaussian(R) 94 system (copyright 1995, Gaussian, Inc.),
 the Gaussian 92(TM) system (copyright 1992, Gaussian, Inc.),
 the Gaussian 90(TM) system (copyright 1990, Gaussian, Inc.),
 the Gaussian 88(TM) system (copyright 1988, Gaussian, Inc.),
 the Gaussian 86(TM) system (copyright 1986, Carnegie Mellon
 University), and the Gaussian 82(TM) system (copyright 1983,
 Carnegie Mellon University). Gaussian is a federally registered
 trademark of Gaussian, Inc.
  
 This software contains proprietary and confidential information,
 including trade secrets, belonging to Gaussian, Inc.
  
 This software is provided under written license and may be
 used, copied, transmitted, or stored only in accord with that
 written license.
  
 The following legend is applicable only to US Government
 contracts under FAR:
  
                    RESTRICTED RIGHTS LEGEND
  
 Use, reproduction and disclosure by the US Government is
 subject to restrictions as set forth in subparagraphs (a)
 and (c) of the Commercial Computer Software - Restricted
 Rights clause in FAR 52.227-19.
  
 Gaussian, Inc.
 340 Quinnipiac St., Bldg. 40, Wallingford CT 06492
  
  
 ---------------------------------------------------------------
 Warning -- This program may not be used in any manner that
 competes with the business of Gaussian, Inc. or will provide
 assistance to any competitor of Gaussian, Inc.  The licensee
 of this program is prohibited from giving any competitor of
 Gaussian, Inc. access to this program.  By using this program,
 the user acknowledges that Gaussian, Inc. is engaged in the
 business of creating and licensing software in the field of
 computational chemistry and represents and warrants to the
 licensee that it is not a competitor of Gaussian, Inc. and that
 it will not use this program in any manner prohibited above.
 ---------------------------------------------------------------
  

 Cite this work as:
 Gaussian 16, Revision B.01,
 M. J. Frisch, G. W. Trucks, H. B. Schlegel, G. E. Scuseria, 
 M. A. Robb, J. R. Cheeseman, G. Scalmani, V. Barone, 
 G. A. Petersson, H. Nakatsuji, X. Li, M. Caricato, A. V. Marenich, 
 J. Bloino, B. G. Janesko, R. Gomperts, B. Mennucci, H. P. Hratchian, 
 J. V. Ortiz, A. F. Izmaylov, J. L. Sonnenberg, D. Williams-Young, 
 F. Ding, F. Lipparini, F. Egidi, J. Goings, B. Peng, A. Petrone, 
 T. Henderson, D. Ranasinghe, V. G. Zakrzewski, J. Gao, N. Rega, 
 G. Zheng, W. Liang, M. Hada, M. Ehara, K. Toyota, R. Fukuda, 
 J. Hasegawa, M. Ishida, T. Nakajima, Y. Honda, O. Kitao, H. Nakai, 
 T. Vreven, K. Throssell, J. A. Montgomery, Jr., J. E. Peralta, 
 F. Ogliaro, M. J. Bearpark, J. J. Heyd, E. N. Brothers, K. N. Kudin, 
 V. N. Staroverov, T. A. Keith, R. Kobayashi, J. Normand, 
 K. Raghavachari, A. P. Rendell, J. C. Burant, S. S. Iyengar, 
 J. Tomasi, M. Cossi, J. M. Millam, M. Klene, C. Adamo, R. Cammi, 
 J. W. Ochterski, R. L. Martin, K. Morokuma, O. Farkas, 
 J. B. Foresman, and D. J. Fox, Gaussian, Inc., Wallingford CT, 2016.
 
 ******************************************
 Gaussian 16:  EM64W-G16RevB.01 16-Dec-2017
                22-Jul-2018 
 ******************************************
 %nproc=2
 Will use up to    2 processors via shared memory.
 %mem=4gb
 %chk=TiO21aHigher2.chk
 ------------------------------------------
 # MP2 Def2TZVP opt=(noeigen,z-matrix) freq
 ------------------------------------------
 1/10=7,11=1,18=40,38=1/1,3;
 2/12=2,17=6,18=5,29=3,40=1/2;
 3/5=44,7=101,11=9,25=1,30=1,71=1/1,2,3;
 4//1;
 5/5=2,38=5/2;
 8/6=4,10=1/1;
 9/15=2,16=-3/6;
 10/5=1/2;
 6/7=2,8=2,9=2,10=2/1;
 7/12=2,29=1/1,2,3,16;
 1/10=7,11=1,18=40/3(2);
 2/29=3/2;
 99//99;
 2/29=3/2;
 3/5=44,7=101,11=9,25=1,30=1,71=1/1,2,3;
 4/5=5,16=3,69=1/1;
 5/5=2,38=5/2;
 8/6=4,10=1/1;
 9/15=2,16=-3/6;
 10/5=1/2;
 7/12=2/1,2,3,16;
 1/11=1,18=40/3(-8);
 2/29=3/2;
 6/7=2,8=2,9=2,10=2/1;
 99/9=10/99;
 -------
 TiO21a1
 -------
 Symbolic Z-matrix:
 Charge =  0 Multiplicity = 1
 Ti
 O                    1    R1
 O                    1    R1       2    A1
       Variables:
  R1                    1.68346                  
       Constants:
  A1                  102.                       
 

 GradGradGradGradGradGradGradGradGradGradGradGradGradGradGradGradGradGrad
 Berny optimization.
 Initialization pass.
                       ----------------------------
                       !    Initial Parameters    !
                       ! (Angstroms and Degrees)  !
 ----------------------                            ----------------------
 !      Name          Value   Derivative information (Atomic Units)     !
 ------------------------------------------------------------------------
 !       R1          1.6835   estimate D2E/DX2                          !
 !       A1        102.0      Frozen                                    !
 ------------------------------------------------------------------------
 Trust Radius=3.00D-01 FncErr=1.00D-07 GrdErr=1.00D-07 EigMax=2.50D+02 EigMin=1.00D-04
 Number of steps in this run=     20 maximum allowed number of steps=    100.
 GradGradGradGradGradGradGradGradGradGradGradGradGradGradGradGradGradGrad

 ---------------------------------------------------------------------------------------------------
                            Z-MATRIX (ANGSTROMS AND DEGREES)
   CD    Cent   Atom    N1       Length/X        N2       Alpha/Y        N3        Beta/Z          J
 ---------------------------------------------------------------------------------------------------
      1      1  Ti
      2      2  O        1   1.683455(     1)
      3      3  O        1   1.683455(     2)      2  102.000(     3)
 ---------------------------------------------------------------------------------------------------
                         Z-Matrix orientation:                         
 ---------------------------------------------------------------------
 Center     Atomic      Atomic             Coordinates (Angstroms)
 Number     Number       Type             X           Y           Z
 ---------------------------------------------------------------------
      1         22           0        0.000000    0.000000    0.000000
      2          8           0        0.000000    0.000000    1.683455
      3          8           0        1.646668    0.000000   -0.350010
 ---------------------------------------------------------------------
                    Distance matrix (angstroms):
                    1          2          3
     1  Ti   0.000000
     2  O    1.683455   0.000000
     3  O    1.683455   2.616581   0.000000
 Stoichiometry    O2Ti
 Framework group  C2V[C2(Ti),SGV(O2)]
 Deg. of freedom     2
 Full point group                 C2V     NOp   4
 Largest Abelian subgroup         C2V     NOp   4
 Largest concise Abelian subgroup C2      NOp   2
                         Standard orientation:                         
 ---------------------------------------------------------------------
 Center     Atomic      Atomic             Coordinates (Angstroms)
 Number     Number       Type             X           Y           Z
 ---------------------------------------------------------------------
      1         22           0        0.000000    0.000000    0.446077
      2          8           0        0.000000    1.308290   -0.613356
      3          8           0        0.000000   -1.308290   -0.613356
 ---------------------------------------------------------------------
 Rotational constants (GHZ):          23.4660846           9.2299001           6.6243491
 Standard basis: def2TZVP (5D, 7F)
 There are    50 symmetry adapted cartesian basis functions of A1  symmetry.
 There are    16 symmetry adapted cartesian basis functions of A2  symmetry.
 There are    22 symmetry adapted cartesian basis functions of B1  symmetry.
 There are    36 symmetry adapted cartesian basis functions of B2  symmetry.
 There are    41 symmetry adapted basis functions of A1  symmetry.
 There are    15 symmetry adapted basis functions of A2  symmetry.
 There are    20 symmetry adapted basis functions of B1  symmetry.
 There are    31 symmetry adapted basis functions of B2  symmetry.
   107 basis functions,   204 primitive gaussians,   124 cartesian basis functions
    19 alpha electrons       19 beta electrons
       nuclear repulsion energy       123.5910233629 Hartrees.
 NAtoms=    3 NActive=    3 NUniq=    2 SFac= 2.25D+00 NAtFMM=   60 NAOKFM=F Big=F
 Integral buffers will be    131072 words long.
 Raffenetti 1 integral format.
 Two-electron integral symmetry is turned on.
 One-electron integrals computed using PRISM.
   4 Symmetry operations used in ECPInt.
 ECPInt:  NShTT=     703 NPrTT=    3029 LenC2=     698 LenP2D=    2557.
 LDataN:  DoStor=T MaxTD1= 6 Len=  172
 NBasis=   107 RedAO= T EigKep=  3.39D-03  NBF=    41    15    20    31
 NBsUse=   107 1.00D-06 EigRej= -1.00D+00 NBFU=    41    15    20    31
 ExpMin= 3.27D-02 ExpMax= 2.12D+05 ExpMxC= 2.04D+03 IAcc=3 IRadAn=         5 AccDes= 0.00D+00
 Harris functional with IExCor=  205 and IRadAn=       5 diagonalized for initial guess.
 HarFok:  IExCor=  205 AccDes= 0.00D+00 IRadAn=         5 IDoV= 1 UseB2=F ITyADJ=14
 ICtDFT=  3500011 ScaDFX=  1.000000  1.000000  1.000000  1.000000
 FoFCou: FMM=F IPFlag=           0 FMFlag=      100000 FMFlg1=           0
         NFxFlg=           0 DoJE=T BraDBF=F KetDBF=T FulRan=T
         wScrn=  0.000000 ICntrl=       500 IOpCl=  0 I1Cent=   200000004 NGrid=           0
         NMat0=    1 NMatS0=      1 NMatT0=    0 NMatD0=    1 NMtDS0=    0 NMtDT0=    0
 Petite list used in FoFCou.
 Initial guess orbital symmetries:
       Occupied  (A1) (A1) (A1) (B2) (B2) (A1) (B1) (A1) (B2) (A1)
                 (B1) (A1) (B2) (A1) (B2) (B1) (A2) (A1) (B2)
       Virtual   (A1) (B1) (A1) (A2) (B2) (A1) (B1) (A1) (B2) (A2)
                 (B1) (A1) (A1) (B2) (A1) (B2) (A1) (B2) (A1) (A2)
                 (B1) (B1) (A2) (A1) (B2) (A1) (B2) (A1) (B1) (A1)
                 (B2) (B1) (A2) (B2) (A1) (A1) (B1) (A2) (B2) (A1)
                 (B1) (B2) (A1) (A1) (B1) (A2) (B2) (A1) (B2) (B1)
                 (A1) (A2) (B2) (A1) (B2) (B1) (A2) (A1) (A1) (B2)
                 (A1) (B2) (A2) (B2) (A2) (B1) (A1) (B2) (A1) (B1)
                 (B1) (B2) (A1) (A2) (A1) (B2) (A2) (A1) (B1) (B2)
                 (B2) (B1) (A2) (A1) (A1) (B2) (A1) (B2)
 The electronic state of the initial guess is 1-A1.
 Keep R1 ints in memory in symmetry-blocked form, NReq=20959436.
 Requested convergence on RMS density matrix=1.00D-08 within 128 cycles.
 Requested convergence on MAX density matrix=1.00D-06.
 Requested convergence on             energy=1.00D-06.
 No special actions if energy rises.
 SCF Done:  E(RHF) =  -998.146520899     A.U. after   17 cycles
            NFock= 17  Conv=0.40D-08     -V/T= 2.0006
 ExpMin= 3.27D-02 ExpMax= 2.12D+05 ExpMxC= 2.04D+03 IAcc=3 IRadAn=         5 AccDes= 0.00D+00
 HarFok:  IExCor=  205 AccDes= 0.00D+00 IRadAn=         5 IDoV=-2 UseB2=F ITyADJ=14
 ICtDFT= 12500011 ScaDFX=  1.000000  1.000000  1.000000  1.000000
 Range of M.O.s used for correlation:    12   107
 NBasis=   107 NAE=    19 NBE=    19 NFC=    11 NFV=     0
 NROrb=     96 NOA=     8 NOB=     8 NVA=    88 NVB=    88
 Fully direct method using O(ONN) memory.
 JobTyp=1 Pass  1:  I=  12 to  19 NPSUse=  2 ParTrn=T ParDer=T DoDerP=T.
 Spin components of T(2) and E(2):
     alpha-alpha T2 =       0.4555356117D-01 E2=     -0.1047699984D+00
     alpha-beta  T2 =       0.1960408528D+00 E2=     -0.5047443947D+00
     beta-beta   T2 =       0.4555356117D-01 E2=     -0.1047699984D+00
 ANorm=    0.1134525440D+01
 E2 =    -0.7142843914D+00 EUMP2 =    -0.99886080529081D+03
          IDoAtm=111
          Differentiating once with respect to electric field.
                with respect to dipole field.
          Differentiating once with respect to nuclear coordinates.
 Keep R1 ints in memory in symmetry-blocked form, NReq=20960211.
          There are     1 degrees of freedom in the 1st order CPHF.  IDoFFX=0 NUNeed=     1.
 LinEq1:  Iter=  0 NonCon=     1 RMS=1.54D-02 Max=2.55D-01 NDo=     1
 AX will form     1 AO Fock derivatives at one time.
 LinEq1:  Iter=  1 NonCon=     1 RMS=8.51D-03 Max=1.00D-01 NDo=     1
 LinEq1:  Iter=  2 NonCon=     1 RMS=4.26D-03 Max=6.15D-02 NDo=     1
 LinEq1:  Iter=  3 NonCon=     1 RMS=1.95D-03 Max=2.29D-02 NDo=     1
 LinEq1:  Iter=  4 NonCon=     1 RMS=5.18D-04 Max=6.03D-03 NDo=     1
 LinEq1:  Iter=  5 NonCon=     1 RMS=1.61D-04 Max=2.82D-03 NDo=     1
 LinEq1:  Iter=  6 NonCon=     1 RMS=5.42D-05 Max=7.06D-04 NDo=     1
 LinEq1:  Iter=  7 NonCon=     1 RMS=1.53D-05 Max=1.72D-04 NDo=     1
 LinEq1:  Iter=  8 NonCon=     1 RMS=3.43D-06 Max=4.36D-05 NDo=     1
 LinEq1:  Iter=  9 NonCon=     1 RMS=8.17D-07 Max=1.08D-05 NDo=     1
 LinEq1:  Iter= 10 NonCon=     1 RMS=1.85D-07 Max=2.96D-06 NDo=     1
 LinEq1:  Iter= 11 NonCon=     1 RMS=3.88D-08 Max=5.07D-07 NDo=     1
 LinEq1:  Iter= 12 NonCon=     1 RMS=7.70D-09 Max=1.02D-07 NDo=     1
 LinEq1:  Iter= 13 NonCon=     1 RMS=1.58D-09 Max=2.55D-08 NDo=     1
 LinEq1:  Iter= 14 NonCon=     1 RMS=4.15D-10 Max=5.66D-09 NDo=     1
 LinEq1:  Iter= 15 NonCon=     1 RMS=7.68D-11 Max=1.02D-09 NDo=     1
 LinEq1:  Iter= 16 NonCon=     0 RMS=1.25D-11 Max=1.54D-10 NDo=     1
 Linear equations converged to 1.000D-10 1.000D-09 after    16 iterations.
 End of Minotr F.D. properties file   721 does not exist.
 End of Minotr F.D. properties file   722 does not exist.
 End of Minotr F.D. properties file   788 does not exist.

 **********************************************************************

            Population analysis using the SCF Density.

 **********************************************************************

 Orbital symmetries:
       Occupied  (A1) (A1) (B2) (A1) (A1) (B2) (B1) (A1) (B2) (A1)
                 (B1) (A1) (B2) (A1) (B2) (A1) (A2) (B1) (B2)
       Virtual   (A1) (B1) (A1) (B2) (A1) (A2) (B1) (A1) (A2) (A1)
                 (B2) (B1) (A1) (B2) (A1) (B2) (A1) (A2) (B1) (A1)
                 (B2) (A1) (B1) (B2) (A2) (A1) (A1) (B2) (B1) (A1)
                 (B2) (B1) (B2) (A1) (A2) (A1) (B1) (A2) (A1) (B2)
                 (B2) (A1) (B1) (A1) (A2) (B1) (B2) (A1) (B2) (B1)
                 (A2) (A1) (B2) (A1) (B2) (B1) (A2) (A1) (A1) (B2)
                 (A1) (B2) (A2) (B2) (A2) (B1) (A1) (B2) (A1) (B1)
                 (B1) (B2) (A1) (A2) (A1) (B2) (A2) (A1) (B1) (B2)
                 (B2) (B1) (A2) (A1) (A1) (B2) (A1) (B2)
 The electronic state is 1-A1.
 Alpha  occ. eigenvalues -- -183.41032 -21.58325 -20.50692 -20.50692 -17.95101
 Alpha  occ. eigenvalues --  -17.94992 -17.94952  -2.99192  -1.92472  -1.92370
 Alpha  occ. eigenvalues --   -1.91306  -1.15871  -1.14965  -0.49006  -0.48303
 Alpha  occ. eigenvalues --   -0.43573  -0.43566  -0.43170  -0.39430
 Alpha virt. eigenvalues --   -0.04074   0.04356   0.04984   0.08170   0.12496
 Alpha virt. eigenvalues --    0.12987   0.16835   0.17038   0.17302   0.18406
 Alpha virt. eigenvalues --    0.21973   0.22389   0.23103   0.29668   0.33427
 Alpha virt. eigenvalues --    0.61494   0.63463   0.66037   0.66547   0.68221
 Alpha virt. eigenvalues --    0.73139   0.77031   0.77808   0.78823   0.79271
 Alpha virt. eigenvalues --    0.80939   0.99889   1.00065   1.22170   1.38346
 Alpha virt. eigenvalues --    1.48241   1.52833   1.56092   1.56942   1.57358
 Alpha virt. eigenvalues --    1.59123   1.61643   1.83024   1.90435   1.91311
 Alpha virt. eigenvalues --    1.98485   2.03932   2.04414   2.15925   2.17664
 Alpha virt. eigenvalues --    2.18761   2.26490   2.33756   2.45390   2.51887
 Alpha virt. eigenvalues --    2.58771   2.61213   2.77705   2.78975   3.14979
 Alpha virt. eigenvalues --    3.17690   3.20625   3.30323   3.41574   3.42638
 Alpha virt. eigenvalues --    4.24175   4.37515   5.61977   5.63128   5.63884
 Alpha virt. eigenvalues --    5.63937   5.64098   5.64223   5.65645   5.68926
 Alpha virt. eigenvalues --    5.80021   5.80639   5.85634   5.85893   6.13764
 Alpha virt. eigenvalues --    6.24631   6.80547   6.82509   6.83144   6.84209
 Alpha virt. eigenvalues --    7.02837   7.05818   7.06331   7.15865   7.38591
 Alpha virt. eigenvalues --    7.58035  45.07892  45.09126
          Condensed to atoms (all electrons):
               1          2          3
     1  Ti  19.729830   0.389089   0.389089
     2  O    0.389089   8.365484  -0.008577
     3  O    0.389089  -0.008577   8.365484
 Mulliken charges:
               1
     1  Ti   1.491992
     2  O   -0.745996
     3  O   -0.745996
 Sum of Mulliken charges =   0.00000
 Mulliken charges with hydrogens summed into heavy atoms:
               1
     1  Ti   1.491992
     2  O   -0.745996
     3  O   -0.745996
 Electronic spatial extent (au):  <R**2>=            196.7748
 Charge=              0.0000 electrons
 Dipole moment (field-independent basis, Debye):
    X=              0.0000    Y=              0.0000    Z=              9.0307  Tot=              9.0307
 Quadrupole moment (field-independent basis, Debye-Ang):
   XX=            -22.5391   YY=            -38.1074   ZZ=            -22.5431
   XY=              0.0000   XZ=              0.0000   YZ=              0.0000
 Traceless Quadrupole moment (field-independent basis, Debye-Ang):
   XX=              5.1908   YY=            -10.3775   ZZ=              5.1867
   XY=              0.0000   XZ=              0.0000   YZ=              0.0000
 Octapole moment (field-independent basis, Debye-Ang**2):
  XXX=              0.0000  YYY=              0.0000  ZZZ=             15.9505  XYY=              0.0000
  XXY=              0.0000  XXZ=              5.1260  XZZ=              0.0000  YZZ=              0.0000
  YYZ=              9.2784  XYZ=              0.0000
 Hexadecapole moment (field-independent basis, Debye-Ang**3):
 XXXX=            -20.3287 YYYY=           -183.7998 ZZZZ=            -56.7251 XXXY=              0.0000
 XXXZ=              0.0000 YYYX=              0.0000 YYYZ=              0.0000 ZZZX=              0.0000
 ZZZY=              0.0000 XXYY=            -31.3583 XXZZ=            -12.5029 YYZZ=            -40.0146
 XXYZ=              0.0000 YYXZ=              0.0000 ZZXY=              0.0000
 N-N= 1.235910233629D+02 E-N=-2.613860620358D+03  KE= 9.975657334313D+02
 Symmetry A1   KE= 7.286416550384D+02
 Symmetry A2   KE= 4.235978757161D+00
 Symmetry B1   KE= 9.714471016342D+01
 Symmetry B2   KE= 1.675433894723D+02
   4 Symmetry operations used in ECPInt.
 ECPInt:  NShTT=     703 NPrTT=    3029 LenC2=     698 LenP2D=    2557.
 LDataN:  DoStor=T MaxTD1= 7 Len=  274
 Calling FoFJK, ICntrl=  10002127 FMM=F ISym2X=1 I1Cent= 0 IOpClX= 0 NMat=1 NMatS=1 NMatT=0.
 ***** Axes restored to original set *****
 -------------------------------------------------------------------
 Center     Atomic                   Forces (Hartrees/Bohr)
 Number     Number              X              Y              Z
 -------------------------------------------------------------------
      1       22           0.010034735    0.000000000    0.008125968
      2        8          -0.008392485    0.000000000    0.000104939
      3        8          -0.001642250    0.000000000   -0.008230907
 -------------------------------------------------------------------
 Cartesian Forces:  Max     0.010034735 RMS     0.005846337
 -----------------------------------------------------------------------------------------------
                       Internal Coordinate Forces (Hartree/Bohr or radian)
  Cent   Atom   N1       Length/X         N2         Alpha/Y        N3         Beta/Z          J
 -----------------------------------------------------------------------------------------------
      1  Ti
      2  O        1   0.000105(     1)
      3  O        1   0.000105(     2)      2   0.026699(     3)
 -----------------------------------------------------------------------------------------------
 Internal  Forces:  Max     0.026698754 RMS     0.015414771

 GradGradGradGradGradGradGradGradGradGradGradGradGradGradGradGradGradGrad
 Berny optimization.
 Search for a local minimum.
 Step number   1 out of a maximum of   20
 All quantities printed in internal units (Hartrees-Bohrs-Radians)
 Second derivative matrix not updated -- first step.
 The second derivative matrix:
                          R1        A1
           R1           0.69507
           A1           0.00000   0.25000
 ITU=  0
     Eigenvalues ---    0.695071000.00000
 RFO step:  Lambda=-6.33734630D-08 EMin= 6.95070614D-01
 Linear search not attempted -- first point.
 Variable       Old X    -DE/DX   Delta X   Delta X   Delta X     New X
                                 (Linear)    (Quad)   (Total)
    R1        3.18127   0.00021   0.00000   0.00030   0.00030   3.18157
    A1        1.78024   0.02670   0.00000   0.00000   0.00000   1.78024
         Item               Value     Threshold  Converged?
 Maximum Force            0.000210     0.000450     YES
 RMS     Force            0.000210     0.000300     YES
 Maximum Displacement     0.000302     0.001800     YES
 RMS     Displacement     0.000214     0.001200     YES
 Predicted change in Energy=-3.168673D-08
 Optimization completed.
    -- Stationary point found.
                       ----------------------------
                       !   Optimized Parameters   !
                       ! (Angstroms and Degrees)  !
 ----------------------                            ----------------------
 !      Name          Value   Derivative information (Atomic Units)     !
 ------------------------------------------------------------------------
 !       R1          1.6835   -DE/DX =    0.0002                        !
 !       A1        102.0      -DE/DX =    0.0267                        !
 ------------------------------------------------------------------------
 GradGradGradGradGradGradGradGradGradGradGradGradGradGradGradGradGradGrad

 ---------------------------------------------------------------------------------------------------
                            Z-MATRIX (ANGSTROMS AND DEGREES)
   CD    Cent   Atom    N1       Length/X        N2       Alpha/Y        N3        Beta/Z          J
 ---------------------------------------------------------------------------------------------------
      1      1  Ti
      2      2  O        1   1.683455(     1)
      3      3  O        1   1.683455(     2)      2  102.000(     3)
 ---------------------------------------------------------------------------------------------------
                         Z-Matrix orientation:                         
 ---------------------------------------------------------------------
 Center     Atomic      Atomic             Coordinates (Angstroms)
 Number     Number       Type             X           Y           Z
 ---------------------------------------------------------------------
      1         22           0        0.000000    0.000000    0.000000
      2          8           0        0.000000    0.000000    1.683455
      3          8           0        1.646668    0.000000   -0.350010
 ---------------------------------------------------------------------
                    Distance matrix (angstroms):
                    1          2          3
     1  Ti   0.000000
     2  O    1.683455   0.000000
     3  O    1.683455   2.616581   0.000000
 Stoichiometry    O2Ti
 Framework group  C2V[C2(Ti),SGV(O2)]
 Deg. of freedom     2
 Full point group                 C2V     NOp   4
 Largest Abelian subgroup         C2V     NOp   4
 Largest concise Abelian subgroup C2      NOp   2
                         Standard orientation:                         
 ---------------------------------------------------------------------
 Center     Atomic      Atomic             Coordinates (Angstroms)
 Number     Number       Type             X           Y           Z
 ---------------------------------------------------------------------
      1         22           0        0.000000    0.000000    0.446077
      2          8           0        0.000000    1.308290   -0.613356
      3          8           0        0.000000   -1.308290   -0.613356
 ---------------------------------------------------------------------
 Rotational constants (GHZ):          23.4660846           9.2299001           6.6243491
 1|1|UNPC-DESKTOP-F4NP0R6|POpt|RMP2-FC|def2TZVP|O2Ti1|GARRETT|22-Jul-20
 18|1||# MP2 Def2TZVP opt=(noeigen,z-matrix) freq||TiO21a1||0,1|Ti|O,1,
 R1|O,1,R1,2,A1||R1=1.68345512|A1=102.||Version=EM64W-G16RevB.01|State=
 1-A1|HF=-998.1465209|MP2=-998.8608053|RMSD=4.022e-009|RMSF=5.846e-003|
 Dipole=-2.0361914,0.,-1.6488752|PG=C02V [C2(Ti1),SGV(O2)]||@


 TOM, TOM, THE BURGLAR'S SON
 STOLE A MACHINE AND AWAY HE RUN
 THE JOB WAS NEAT, BUT TOM GOT BEAT
 BY THE TIME HE GOT HOME IT WAS OBSOLETE.
 Job cpu time:       0 days  0 hours  0 minutes 24.0 seconds.
 Elapsed time:       0 days  0 hours  0 minutes 15.6 seconds.
 File lengths (MBytes):  RWF=     10 Int=      0 D2E=      0 Chk=      2 Scr=      1
 Normal termination of Gaussian 16 at Sun Jul 22 15:57:08 2018.
 Link1:  Proceeding to internal job step number  2.
 ----------------------------------------------------------------------
 #N Geom=AllCheck Guess=TCheck SCRF=Check GenChk RMP2(FC)/def2TZVP Freq
 ----------------------------------------------------------------------
 1/10=4,11=1,29=7,30=1,38=1,40=1/1,3;
 2/12=2,40=1/2;
 3/5=44,7=101,11=1,14=-4,25=1,30=1,70=2,71=2,116=1,140=1/1,2,3;
 4/5=101/1;
 5/5=2,38=6,98=1/2;
 8/6=3,8=1,10=1,19=11,30=-1/1;
 9/15=3,16=-3/6;
 11/6=1,8=1,15=11,17=12,24=-1,27=1,28=-2,29=300,32=6,42=3/1,2,10;
 10/6=2,21=1/2;
 8/6=4,8=1,10=1,19=11,30=-1/11,4;
 10/5=1,20=4/2;
 11/12=2,14=11,16=1,17=2,28=-2,42=3,76=2/2,10,12;
 6/7=2,8=2,9=2,10=2/1;
 7/8=1,10=1,12=2,25=1,44=2/1,2,3,16;
 1/10=4,11=1,30=1/3;
 99//99;
 Structure from the checkpoint file:  "TiO21aHigher2.chk"
 -------
 TiO21a1
 -------
 Charge =  0 Multiplicity = 1
 Z-Matrix found in chk file.
 Ti
 O,1,R1
 O,1,R1,2,A1
      Variables:
 R1=1.68345512
      Constants:
 A1=102.
 Recover connectivity data from disk.

 GradGradGradGradGradGradGradGradGradGradGradGradGradGradGradGradGradGrad
 Berny optimization.
 Initialization pass.
                       ----------------------------
                       !    Initial Parameters    !
                       ! (Angstroms and Degrees)  !
 ----------------------                            ----------------------
 !      Name          Value   Derivative information (Atomic Units)     !
 ------------------------------------------------------------------------
 !       R1          1.6835   calculate D2E/DX2 analytically            !
 !       A1        102.0      frozen, calculate D2E/DX2 analytically    !
 ------------------------------------------------------------------------
 Trust Radius=3.00D-01 FncErr=1.00D-07 GrdErr=1.00D-07 EigMax=2.50D+02 EigMin=1.00D-04
 Number of steps in this run=      2 maximum allowed number of steps=      2.
 GradGradGradGradGradGradGradGradGradGradGradGradGradGradGradGradGradGrad

                          Input orientation:                          
 ---------------------------------------------------------------------
 Center     Atomic      Atomic             Coordinates (Angstroms)
 Number     Number       Type             X           Y           Z
 ---------------------------------------------------------------------
      1         22           0        0.000000    0.000000    0.000000
      2          8           0        0.000000    0.000000    1.683455
      3          8           0        1.646668    0.000000   -0.350010
 ---------------------------------------------------------------------
                    Distance matrix (angstroms):
                    1          2          3
     1  Ti   0.000000
     2  O    1.683455   0.000000
     3  O    1.683455   2.616581   0.000000
 Stoichiometry    O2Ti
 Framework group  C2V[C2(Ti),SGV(O2)]
 Deg. of freedom     2
 Full point group                 C2V     NOp   4
 Largest Abelian subgroup         C2V     NOp   4
 Largest concise Abelian subgroup C2      NOp   2
                         Standard orientation:                         
 ---------------------------------------------------------------------
 Center     Atomic      Atomic             Coordinates (Angstroms)
 Number     Number       Type             X           Y           Z
 ---------------------------------------------------------------------
      1         22           0        0.000000    0.000000    0.446077
      2          8           0        0.000000    1.308290   -0.613356
      3          8           0        0.000000   -1.308290   -0.613356
 ---------------------------------------------------------------------
 Rotational constants (GHZ):          23.4660846           9.2299001           6.6243491
 Standard basis: def2TZVP (5D, 7F)
 There are    50 symmetry adapted cartesian basis functions of A1  symmetry.
 There are    16 symmetry adapted cartesian basis functions of A2  symmetry.
 There are    22 symmetry adapted cartesian basis functions of B1  symmetry.
 There are    36 symmetry adapted cartesian basis functions of B2  symmetry.
 There are    41 symmetry adapted basis functions of A1  symmetry.
 There are    15 symmetry adapted basis functions of A2  symmetry.
 There are    20 symmetry adapted basis functions of B1  symmetry.
 There are    31 symmetry adapted basis functions of B2  symmetry.
   107 basis functions,   204 primitive gaussians,   124 cartesian basis functions
    19 alpha electrons       19 beta electrons
       nuclear repulsion energy       123.5910233629 Hartrees.
 NAtoms=    3 NActive=    3 NUniq=    2 SFac= 2.25D+00 NAtFMM=   60 NAOKFM=F Big=F
 Integral buffers will be    131072 words long.
 Raffenetti 1 integral format.
 Two-electron integral symmetry is turned on.
 One-electron integrals computed using PRISM.
   4 Symmetry operations used in ECPInt.
 ECPInt:  NShTT=     703 NPrTT=    3029 LenC2=     698 LenP2D=    2557.
 LDataN:  DoStor=T MaxTD1= 6 Len=  172
 NBasis=   107 RedAO= T EigKep=  3.39D-03  NBF=    41    15    20    31
 NBsUse=   107 1.00D-06 EigRej= -1.00D+00 NBFU=    41    15    20    31
 Initial guess from the checkpoint file:  "TiO21aHigher2.chk"
 B after Tr=     0.000000    0.000000    0.000000
         Rot=    1.000000    0.000000    0.000000    0.000000 Ang=   0.00 deg.
 Initial guess orbital symmetries:
       Occupied  (A1) (A1) (B2) (A1) (A1) (B2) (B1) (A1) (B2) (A1)
                 (B1) (A1) (B2) (A1) (B2) (A1) (A2) (B1) (B2)
       Virtual   (A1) (B1) (A1) (B2) (A1) (A2) (B1) (A1) (A2) (A1)
                 (B2) (B1) (A1) (B2) (A1) (B2) (A1) (A2) (B1) (A1)
                 (B2) (A1) (B1) (B2) (A2) (A1) (A1) (B2) (B1) (A1)
                 (B2) (B1) (B2) (A1) (A2) (A1) (B1) (A2) (A1) (B2)
                 (B2) (A1) (B1) (A1) (A2) (B1) (B2) (A1) (B2) (B1)
                 (A2) (A1) (B2) (A1) (B2) (B1) (A2) (A1) (A1) (B2)
                 (A1) (B2) (A2) (B2) (A2) (B1) (A1) (B2) (A1) (B1)
                 (B1) (B2) (A1) (A2) (A1) (B2) (A2) (A1) (B1) (B2)
                 (B2) (B1) (A2) (A1) (A1) (B2) (A1) (B2)
 Keep R1 ints in memory in symmetry-blocked form, NReq=20959436.
 Requested convergence on RMS density matrix=1.00D-08 within 128 cycles.
 Requested convergence on MAX density matrix=1.00D-06.
 Requested convergence on             energy=1.00D-06.
 No special actions if energy rises.
 SCF Done:  E(RHF) =  -998.146520899     A.U. after    1 cycles
            NFock=  1  Conv=0.66D-09     -V/T= 2.0006
 ExpMin= 3.27D-02 ExpMax= 2.12D+05 ExpMxC= 2.04D+03 IAcc=3 IRadAn=         5 AccDes= 0.00D+00
 HarFok:  IExCor=  205 AccDes= 0.00D+00 IRadAn=         5 IDoV=-2 UseB2=F ITyADJ=14
 ICtDFT= 12500011 ScaDFX=  1.000000  1.000000  1.000000  1.000000
 Range of M.O.s used for correlation:    12   107
 NBasis=   107 NAE=    19 NBE=    19 NFC=    11 NFV=     0
 NROrb=     96 NOA=     8 NOB=     8 NVA=    88 NVB=    88
 Disk-based method using ON**2 memory for  8 occupieds at a time.
 Permanent disk used for amplitudes=     3450172 words.
 Estimated scratch disk usage=    17085867 words.
 Actual    scratch disk usage=    17085867 words.
 JobTyp=1 Pass  1:  I=  12 to  19 NPSUse=  2 ParTrn=T ParDer=T DoDerP=T.
 (rs|ai) integrals will be sorted in core.
 Spin components of T(2) and E(2):
     alpha-alpha T2 =       0.4555355842D-01 E2=     -0.1047699954D+00
     alpha-beta  T2 =       0.1960408422D+00 E2=     -0.5047443850D+00
     beta-beta   T2 =       0.4555355842D-01 E2=     -0.1047699954D+00
 ANorm=    0.1134525433D+01
 E2 =    -0.7142843759D+00 EUMP2 =    -0.99886080527524D+03
   4 Symmetry operations used in ECPInt.
 ECPInt:  NShTT=     703 NPrTT=    3029 LenC2=     698 LenP2D=    2557.
 LDataN:  DoStor=T MaxTD1= 7 Len=  274
 G2DrvN: will do     4 centers at a time, making    1 passes.
 Calling FoFCou, ICntrl=  3107 FMM=F I1Cent=   0 AccDes= 0.00D+00.
 End of G2Drv F.D. properties file   721 does not exist.
 End of G2Drv F.D. properties file   722 does not exist.
 End of G2Drv F.D. properties file   788 does not exist.
          IDoAtm=111
          Differentiating once with respect to electric field.
                with respect to dipole field.
          Differentiating once with respect to nuclear coordinates.
 Keep R1 ints in memory in symmetry-blocked form, NReq=20960211.
          There are    12 degrees of freedom in the 1st order CPHF.  IDoFFX=6 NUNeed=    12.
      9 vectors produced by pass  0 Test12= 1.39D-14 8.33D-09 XBig12= 1.62D+01 1.55D+00.
 AX will form     9 AO Fock derivatives at one time.
      9 vectors produced by pass  1 Test12= 1.39D-14 8.33D-09 XBig12= 5.65D+00 7.30D-01.
      9 vectors produced by pass  2 Test12= 1.39D-14 8.33D-09 XBig12= 4.07D-01 1.85D-01.
      9 vectors produced by pass  3 Test12= 1.39D-14 8.33D-09 XBig12= 3.14D-02 7.07D-02.
      9 vectors produced by pass  4 Test12= 1.39D-14 8.33D-09 XBig12= 1.16D-03 9.97D-03.
      9 vectors produced by pass  5 Test12= 1.39D-14 8.33D-09 XBig12= 3.50D-05 2.36D-03.
      9 vectors produced by pass  6 Test12= 1.39D-14 8.33D-09 XBig12= 9.58D-07 3.47D-04.
      9 vectors produced by pass  7 Test12= 1.39D-14 8.33D-09 XBig12= 1.17D-08 2.83D-05.
      9 vectors produced by pass  8 Test12= 1.39D-14 8.33D-09 XBig12= 1.56D-10 5.90D-06.
      5 vectors produced by pass  9 Test12= 1.39D-14 8.33D-09 XBig12= 4.13D-12 1.03D-06.
      3 vectors produced by pass 10 Test12= 1.39D-14 8.33D-09 XBig12= 4.99D-14 4.36D-08.
 InvSVY:  IOpt=1 It=  1 EMax= 4.44D-16
 Solved reduced A of dimension    89 with     9 vectors.
 End of Minotr F.D. properties file   721 does not exist.
 End of Minotr F.D. properties file   722 does not exist.
 End of Minotr F.D. properties file   788 does not exist.
 MDV=   536870912.
 Form MO integral derivatives with frozen-active canonical formalism.
 Discarding MO integrals.
 Reordered first order wavefunction length =      5591168
 In DefCFB: NBatch=  1 ICI= 19 ICA= 88 LFMax= 44
            Large arrays: LIAPS=    88736384 LIARS=    75467392 words.
 Semi-Direct transformation.
 ModeAB=           4 MOrb=            19 LenV=     536411253
 LASXX=     10151206 LTotXX=    10151206 LenRXX=    20592162
 LTotAB=    10440956 MaxLAS=     9845819 LenRXY=           0
 NonZer=    30743368 LenScr=    46879232 LnRSAI=     9845819
 LnScr1=    15544320 LExtra=           0 Total=     92861533
 MaxDsk=          -1 SrtSym=           T ITran=            4
 JobTyp=0 Pass  1:  I=   1 to  19.
 (rs|ai) integrals will be sorted in core.
 Spin components of T(2) and E(2):
     alpha-alpha T2 =       0.4555355842D-01 E2=     -0.1047699954D+00
     alpha-beta  T2 =       0.1960408422D+00 E2=     -0.5047443850D+00
     beta-beta   T2 =       0.4555355842D-01 E2=     -0.1047699954D+00
 ANorm=    0.1604461255D+01
 E2 =    -0.7142843759D+00 EUMP2 =    -0.99886080527524D+03
          IDoAtm=111
          Differentiating once with respect to electric field.
                with respect to dipole field.
          Differentiating once with respect to nuclear coordinates.
          There are     1 degrees of freedom in the 1st order CPHF.  IDoFFX=0 NUNeed=     1.
 LinEq1:  Iter=  0 NonCon=     1 RMS=1.54D-02 Max=2.55D-01 NDo=     1
 LinEq1:  Iter=  1 NonCon=     1 RMS=8.51D-03 Max=1.00D-01 NDo=     1
 LinEq1:  Iter=  2 NonCon=     1 RMS=4.26D-03 Max=6.15D-02 NDo=     1
 LinEq1:  Iter=  3 NonCon=     1 RMS=1.95D-03 Max=2.29D-02 NDo=     1
 LinEq1:  Iter=  4 NonCon=     1 RMS=5.18D-04 Max=6.03D-03 NDo=     1
 LinEq1:  Iter=  5 NonCon=     1 RMS=1.61D-04 Max=2.82D-03 NDo=     1
 LinEq1:  Iter=  6 NonCon=     1 RMS=5.42D-05 Max=7.06D-04 NDo=     1
 LinEq1:  Iter=  7 NonCon=     1 RMS=1.53D-05 Max=1.72D-04 NDo=     1
 LinEq1:  Iter=  8 NonCon=     1 RMS=3.43D-06 Max=4.36D-05 NDo=     1
 LinEq1:  Iter=  9 NonCon=     1 RMS=8.17D-07 Max=1.08D-05 NDo=     1
 LinEq1:  Iter= 10 NonCon=     1 RMS=1.85D-07 Max=2.96D-06 NDo=     1
 LinEq1:  Iter= 11 NonCon=     1 RMS=3.88D-08 Max=5.07D-07 NDo=     1
 LinEq1:  Iter= 12 NonCon=     1 RMS=7.70D-09 Max=1.02D-07 NDo=     1
 LinEq1:  Iter= 13 NonCon=     1 RMS=1.58D-09 Max=2.55D-08 NDo=     1
 LinEq1:  Iter= 14 NonCon=     1 RMS=4.15D-10 Max=5.66D-09 NDo=     1
 LinEq1:  Iter= 15 NonCon=     1 RMS=7.68D-11 Max=1.02D-09 NDo=     1
 LinEq1:  Iter= 16 NonCon=     0 RMS=1.25D-11 Max=1.54D-10 NDo=     1
 Linear equations converged to 1.000D-10 1.000D-09 after    16 iterations.
 End of Minotr F.D. properties file   721 does not exist.
 End of Minotr F.D. properties file   722 does not exist.
 End of Minotr F.D. properties file   788 does not exist.
 Symmetrizing basis deriv contribution to polar:
 IMax=3 JMax=2 DiffMx= 0.00D+00
 G2DrvN: will do     4 centers at a time, making    1 passes.
 Calling FoFCou, ICntrl=  3107 FMM=F I1Cent=   0 AccDes= 0.00D+00.
 End of G2Drv F.D. properties file   721 does not exist.
 End of G2Drv F.D. properties file   722 does not exist.
 End of G2Drv F.D. properties file   788 does not exist.
 R2 and R3 integrals will be kept in memory, NReq=    62010250.
 DD1Dir will call FoFMem   1 times, MxPair=       380
 NAB=   190 NAA=     0 NBB=     0.
 Discarding MO integrals.

 **********************************************************************

            Population analysis using the SCF Density.

 **********************************************************************

 Orbital symmetries:
       Occupied  (A1) (A1) (B2) (A1) (A1) (B2) (B1) (A1) (B2) (A1)
                 (B1) (A1) (B2) (A1) (B2) (A1) (A2) (B1) (B2)
       Virtual   (A1) (B1) (A1) (B2) (A1) (A2) (B1) (A1) (A2) (A1)
                 (B2) (B1) (A1) (B2) (A1) (B2) (A1) (A2) (B1) (A1)
                 (B2) (A1) (B1) (B2) (A2) (A1) (A1) (B2) (B1) (A1)
                 (B2) (B1) (B2) (A1) (A2) (A1) (B1) (A2) (A1) (B2)
                 (B2) (A1) (B1) (A1) (A2) (B1) (B2) (A1) (B2) (B1)
                 (A2) (A1) (B2) (A1) (B2) (B1) (A2) (A1) (A1) (B2)
                 (A1) (B2) (A2) (B2) (A2) (B1) (A1) (B2) (A1) (B1)
                 (B1) (B2) (A1) (A2) (A1) (B2) (A2) (A1) (B1) (B2)
                 (B2) (B1) (A2) (A1) (A1) (B2) (A1) (B2)
 The electronic state is 1-A1.
 Alpha  occ. eigenvalues -- -183.41032 -21.58325 -20.50692 -20.50692 -17.95101
 Alpha  occ. eigenvalues --  -17.94992 -17.94952  -2.99192  -1.92472  -1.92370
 Alpha  occ. eigenvalues --   -1.91306  -1.15871  -1.14965  -0.49006  -0.48303
 Alpha  occ. eigenvalues --   -0.43573  -0.43566  -0.43170  -0.39430
 Alpha virt. eigenvalues --   -0.04074   0.04356   0.04984   0.08170   0.12496
 Alpha virt. eigenvalues --    0.12987   0.16835   0.17038   0.17302   0.18406
 Alpha virt. eigenvalues --    0.21973   0.22389   0.23103   0.29668   0.33427
 Alpha virt. eigenvalues --    0.61494   0.63463   0.66037   0.66547   0.68221
 Alpha virt. eigenvalues --    0.73139   0.77031   0.77808   0.78823   0.79271
 Alpha virt. eigenvalues --    0.80939   0.99889   1.00065   1.22170   1.38346
 Alpha virt. eigenvalues --    1.48241   1.52833   1.56092   1.56942   1.57358
 Alpha virt. eigenvalues --    1.59123   1.61643   1.83024   1.90435   1.91311
 Alpha virt. eigenvalues --    1.98485   2.03932   2.04414   2.15925   2.17664
 Alpha virt. eigenvalues --    2.18761   2.26490   2.33756   2.45390   2.51887
 Alpha virt. eigenvalues --    2.58771   2.61213   2.77705   2.78975   3.14979
 Alpha virt. eigenvalues --    3.17690   3.20625   3.30323   3.41574   3.42638
 Alpha virt. eigenvalues --    4.24175   4.37515   5.61977   5.63128   5.63884
 Alpha virt. eigenvalues --    5.63937   5.64098   5.64223   5.65645   5.68926
 Alpha virt. eigenvalues --    5.80021   5.80639   5.85634   5.85893   6.13764
 Alpha virt. eigenvalues --    6.24631   6.80547   6.82509   6.83144   6.84209
 Alpha virt. eigenvalues --    7.02837   7.05818   7.06331   7.15865   7.38591
 Alpha virt. eigenvalues --    7.58035  45.07892  45.09126
          Condensed to atoms (all electrons):
               1          2          3
     1  Ti  19.729829   0.389089   0.389089
     2  O    0.389089   8.365484  -0.008577
     3  O    0.389089  -0.008577   8.365484
 Mulliken charges:
               1
     1  Ti   1.491992
     2  O   -0.745996
     3  O   -0.745996
 Sum of Mulliken charges =   0.00000
 Mulliken charges with hydrogens summed into heavy atoms:
               1
     1  Ti   1.491992
     2  O   -0.745996
     3  O   -0.745996
 APT charges:
               1
     1  Ti   1.268169
     2  O   -0.634084
     3  O   -0.634084
 Sum of APT charges =   0.00000
 APT charges with hydrogens summed into heavy atoms:
               1
     1  Ti   1.268169
     2  O   -0.634084
     3  O   -0.634084
 Electronic spatial extent (au):  <R**2>=            196.7748
 Charge=              0.0000 electrons
 Dipole moment (field-independent basis, Debye):
    X=              0.0000    Y=              0.0000    Z=              9.0307  Tot=              9.0307
 Quadrupole moment (field-independent basis, Debye-Ang):
   XX=            -22.5391   YY=            -38.1074   ZZ=            -22.5431
   XY=              0.0000   XZ=              0.0000   YZ=              0.0000
 Traceless Quadrupole moment (field-independent basis, Debye-Ang):
   XX=              5.1908   YY=            -10.3775   ZZ=              5.1867
   XY=              0.0000   XZ=              0.0000   YZ=              0.0000
 Octapole moment (field-independent basis, Debye-Ang**2):
  XXX=              0.0000  YYY=              0.0000  ZZZ=             15.9505  XYY=              0.0000
  XXY=              0.0000  XXZ=              5.1260  XZZ=              0.0000  YZZ=              0.0000
  YYZ=              9.2784  XYZ=              0.0000
 Hexadecapole moment (field-independent basis, Debye-Ang**3):
 XXXX=            -20.3287 YYYY=           -183.7998 ZZZZ=            -56.7251 XXXY=              0.0000
 XXXZ=              0.0000 YYYX=              0.0000 YYYZ=              0.0000 ZZZX=              0.0000
 ZZZY=              0.0000 XXYY=            -31.3583 XXZZ=            -12.5029 YYZZ=            -40.0146
 XXYZ=              0.0000 YYXZ=              0.0000 ZZXY=              0.0000
 N-N= 1.235910233629D+02 E-N=-2.613860619948D+03  KE= 9.975657333429D+02
 Symmetry A1   KE= 7.286416549569D+02
 Symmetry A2   KE= 4.235978766616D+00
 Symmetry B1   KE= 9.714471013495D+01
 Symmetry B2   KE= 1.675433894845D+02
  Exact polarizability:  19.326   0.000  56.036   0.000   0.000  30.826
 Approx polarizability:  16.474   0.000  41.023   0.000   0.000  33.658
   4 Symmetry operations used in ECPInt.
 ECPInt:  NShTT=     703 NPrTT=    3029 LenC2=     698 LenP2D=    2557.
 LDataN:  DoStor=T MaxTD1= 8 Len=  415
 Calling FoFJK, ICntrl=  10100127 FMM=F ISym2X=1 I1Cent= 0 IOpClX= 0 NMat=1 NMatS=1 NMatT=0.
 Full mass-weighted force constant matrix:
 Low frequencies ---  -59.8671  -10.0520   -0.0062   -0.0047    0.0053   94.2451
 Low frequencies ---  345.6903  896.5886  931.8759
 Diagonal vibrational polarizability:
        0.0000000       6.9258432       0.6898748
 Harmonic frequencies (cm**-1), IR intensities (KM/Mole), Raman scattering
 activities (A**4/AMU), depolarization ratios for plane and unpolarized
 incident light, reduced masses (AMU), force constants (mDyne/A),
 and normal coordinates:
                      1                      2                      3
                     A1                     A1                     B2
 Frequencies --    345.6903               896.5886               931.8565
 Red. masses --     18.2221                18.6958                19.7811
 Frc consts  --      1.2830                 8.8548                10.1204
 IR Inten    --      2.5108                 3.7175               223.4794
  Atom  AN      X      Y      Z        X      Y      Z        X      Y      Z
     1  22     0.00   0.00  -0.26     0.00   0.00   0.29     0.00   0.34   0.00
     2   8     0.00   0.56   0.40     0.00   0.52  -0.44     0.00  -0.52   0.42
     3   8     0.00  -0.56   0.40     0.00  -0.52  -0.44     0.00  -0.52  -0.42

 -------------------
 - Thermochemistry -
 -------------------
 Temperature   298.150 Kelvin.  Pressure   1.00000 Atm.
 Atom     1 has atomic number 22 and mass  47.94795
 Atom     2 has atomic number  8 and mass  15.99491
 Atom     3 has atomic number  8 and mass  15.99491
 Molecular mass:    79.93778 amu.
 Principal axes and moments of inertia in atomic units:
                           1         2         3
     Eigenvalues --    76.90849 195.53204 272.44053
           X            0.00000   0.00000   1.00000
           Y            1.00000   0.00000   0.00000
           Z            0.00000   1.00000   0.00000
 This molecule is an asymmetric top.
 Rotational symmetry number  2.
 Rotational temperatures (Kelvin)      1.12619     0.44297     0.31792
 Rotational constants (GHZ):          23.46608     9.22990     6.62435
 Zero-point vibrational energy      13004.2 (Joules/Mol)
                                    3.10808 (Kcal/Mol)
 Warning -- explicit consideration of   1 degrees of freedom as
           vibrations may cause significant error
 Vibrational temperatures:    497.37  1289.99  1340.73
          (Kelvin)
 
 Zero-point correction=                           0.004953 (Hartree/Particle)
 Thermal correction to Energy=                    0.008254
 Thermal correction to Enthalpy=                  0.009198
 Thermal correction to Gibbs Free Energy=        -0.020286
 Sum of electronic and zero-point Energies=           -998.855852
 Sum of electronic and thermal Energies=              -998.852551
 Sum of electronic and thermal Enthalpies=            -998.851607
 Sum of electronic and thermal Free Energies=         -998.881091
 
                     E (Thermal)             CV                S
                      KCal/Mol        Cal/Mol-Kelvin    Cal/Mol-Kelvin
 Total                    5.180              8.508             62.055
 Electronic               0.000              0.000              0.000
 Translational            0.889              2.981             39.051
 Rotational               0.889              2.981             21.554
 Vibrational              3.402              2.547              1.450
 Vibration     1          0.724              1.584              1.186
                       Q            Log10(Q)             Ln(Q)
 Total Bot       0.214186D+10          9.330791         21.484939
 Total V=0       0.406472D+12         11.609031         26.730782
 Vib (Bot)       0.665520D-02         -2.176839         -5.012357
 Vib (Bot)    1  0.535199D+00         -0.271485         -0.625117
 Vib (V=0)       0.126299D+01          0.101401          0.233486
 Vib (V=0)    1  0.123242D+01          0.090758          0.208979
 Electronic      0.100000D+01          0.000000          0.000000
 Translational   0.280920D+08          7.448582         17.150994
 Rotational      0.114564D+05          4.059048          9.346302
 ***** Axes restored to original set *****
 -------------------------------------------------------------------
 Center     Atomic                   Forces (Hartrees/Bohr)
 Number     Number              X              Y              Z
 -------------------------------------------------------------------
      1       22           0.010034738    0.000000000    0.008125970
      2        8          -0.008392485    0.000000000    0.000104936
      3        8          -0.001642253    0.000000000   -0.008230907
 -------------------------------------------------------------------
 Cartesian Forces:  Max     0.010034738 RMS     0.005846338
 -----------------------------------------------------------------------------------------------
                       Internal Coordinate Forces (Hartree/Bohr or radian)
  Cent   Atom   N1       Length/X         N2         Alpha/Y        N3         Beta/Z          J
 -----------------------------------------------------------------------------------------------
      1  Ti
      2  O        1   0.000105(     1)
      3  O        1   0.000105(     2)      2   0.026699(     3)
 -----------------------------------------------------------------------------------------------
 Internal  Forces:  Max     0.026698753 RMS     0.015414771

 GradGradGradGradGradGradGradGradGradGradGradGradGradGradGradGradGradGrad
 Berny optimization.
 Search for a local minimum.
 Step number   1 out of a maximum of    2
 All quantities printed in internal units (Hartrees-Bohrs-Radians)
 Second derivative matrix not updated -- analytic derivatives used.
 The second derivative matrix:
                          R1        A1
           R1           0.77040
           A1           0.01689   0.27833
 ITU=  0
     Eigenvalues ---    0.770401000.00000
 Angle between quadratic step and forces=   0.00 degrees.
 Linear search not attempted -- first point.
 Variable       Old X    -DE/DX   Delta X   Delta X   Delta X     New X
                                 (Linear)    (Quad)   (Total)
    R1        3.18127   0.00021   0.00000   0.00027   0.00027   3.18154
    A1        1.78024   0.02670   0.00000   0.00000   0.00000   1.78024
         Item               Value     Threshold  Converged?
 Maximum Force            0.000210     0.000450     YES
 RMS     Force            0.000210     0.000300     YES
 Maximum Displacement     0.000272     0.001800     YES
 RMS     Displacement     0.000193     0.001200     YES
 Predicted change in Energy=-2.858651D-08
 Optimization completed.
    -- Stationary point found.
                       ----------------------------
                       !   Optimized Parameters   !
                       ! (Angstroms and Degrees)  !
 ----------------------                            ----------------------
 !      Name          Value   Derivative information (Atomic Units)     !
 ------------------------------------------------------------------------
 !       R1          1.6835   -DE/DX =    0.0002                        !
 !       A1        102.0      -DE/DX =    0.0267                        !
 ------------------------------------------------------------------------
 GradGradGradGradGradGradGradGradGradGradGradGradGradGradGradGradGradGrad


 ----------------------------------------------------------------------

 Electric dipole moment (input orientation):
 (Debye = 10**-18 statcoulomb cm , SI units = C m)
                  (au)            (Debye)         (10**-30 SI)
   Tot        0.262009D+01      0.665960D+01      0.222140D+02
   x         -0.203619D+01     -0.517548D+01     -0.172636D+02
   y          0.000000D+00      0.000000D+00      0.000000D+00
   z         -0.164888D+01     -0.419102D+01     -0.139797D+02

 Dipole polarizability, Alpha (input orientation).
 (esu units = cm**3 , SI units = C**2 m**2 J**-1)
 Alpha(0;0):
               (au)            (10**-24 esu)      (10**-40 SI)
   iso        0.353958D+02      0.524512D+01      0.583598D+01
   aniso      0.325221D+02      0.481928D+01      0.536217D+01
   xx         0.408100D+02      0.604742D+01      0.672866D+01
   yx         0.000000D+00      0.000000D+00      0.000000D+00
   yy         0.193260D+02      0.286381D+01      0.318642D+01
   zx        -0.123294D+02     -0.182703D+01     -0.203285D+01
   zy         0.000000D+00      0.000000D+00      0.000000D+00
   zz         0.460514D+02      0.682412D+01      0.759285D+01

 ----------------------------------------------------------------------

 Dipole orientation:
    22          0.00000000          0.00000000          0.00000000
     8         -2.47231045          0.00000000         -2.00203753
     8          2.47231045          0.00000000         -2.00203753

 Electric dipole moment (dipole orientation):
 (Debye = 10**-18 statcoulomb cm , SI units = C m)
                  (au)            (Debye)         (10**-30 SI)
   Tot        0.262009D+01      0.665960D+01      0.222140D+02
   x          0.000000D+00      0.000000D+00      0.000000D+00
   y          0.000000D+00      0.000000D+00      0.000000D+00
   z          0.262009D+01      0.665960D+01      0.222140D+02

 Dipole polarizability, Alpha (dipole orientation).
 (esu units = cm**3 , SI units = C**2 m**2 J**-1)
 Alpha(0;0):
               (au)            (10**-24 esu)      (10**-40 SI)
   iso        0.353958D+02      0.524512D+01      0.583598D+01
   aniso      0.325221D+02      0.481928D+01      0.536217D+01
   xx         0.560356D+02      0.830362D+01      0.923902D+01
   yx         0.000000D+00      0.000000D+00      0.000000D+00
   yy         0.193260D+02      0.286381D+01      0.318642D+01
   zx         0.000000D+00      0.000000D+00      0.000000D+00
   zy         0.000000D+00      0.000000D+00      0.000000D+00
   zz         0.308258D+02      0.456792D+01      0.508250D+01

 ----------------------------------------------------------------------
 1|1|UNPC-DESKTOP-F4NP0R6|Freq|RMP2-FC|def2TZVP|O2Ti1|GARRETT|22-Jul-20
 18|1||#N Geom=AllCheck Guess=TCheck SCRF=Check GenChk RMP2(FC)/def2TZV
 P Freq||TiO21a1||0,1|Ti|O,1,R1|O,1,R1,2,A1||R1=1.68345512|A1=102.||Ver
 sion=EM64W-G16RevB.01|State=1-A1|HF=-998.1465209|MP2=-998.8608053|RMSD
 =6.602e-010|RMSF=5.846e-003|ZeroPoint=0.004953|Thermal=0.0082542|Dipol
 e=-2.0361915,0.,-1.6488754|DipoleDeriv=1.0611275,0.,-0.8786839,0.,1.30
 87112,0.,-0.8786839,0.,1.4346676,-0.3585604,0.,0.2395299,0.,-0.6543556
 ,0.,0.5660332,0.,-0.8893372,-0.7025672,0.,0.6391541,0.,-0.6543556,0.,0
 .3126508,0.,-0.5453304|Polar=40.8100156,0.,19.3259706,-12.3294239,0.,4
 6.0514155|PG=C02V [C2(Ti1),SGV(O2)]|NImag=0||0.39566690,0.,0.00644969,
 -0.04902160,0.,0.41650662,-0.03059108,0.,-0.02216085,0.02746899,0.,-0.
 00322484,0.,0.,0.00052770,0.00008552,0.,-0.37549568,-0.00529193,0.,0.3
 7931552,-0.36507582,0.,0.07118245,0.00312209,0.,0.00520641,0.36195373,
 0.,-0.00322484,0.,0.,0.00269715,0.,0.,0.00052770,0.04893608,0.,-0.0410
 1094,0.02745278,0.,-0.00381984,-0.07638886,0.,0.04483078||-0.01003474,
 0.,-0.00812597,0.00839249,0.,-0.00010494,0.00164225,0.,0.00823091|||@


       THE DEATH-KNELL OF THE ATOM

 SO THE ATOMS IN TURN, WE NOW CLEARLY DISCERN,
 FLY TO BITS WITH THE UTMOST FACILITY;
 THEY WEND ON THEIR WAY, AND, IN SPLITTING, DISPLAY
 AN ABSOLUTE LACK OF STABILITY.

          SIR WM. RAMSAY, 1905
 Job cpu time:       0 days  0 hours  4 minutes 38.0 seconds.
 Elapsed time:       0 days  0 hours  4 minutes 25.3 seconds.
 File lengths (MBytes):  RWF=   1341 Int=      0 D2E=      0 Chk=      2 Scr=      1
 Normal termination of Gaussian 16 at Sun Jul 22 16:01:47 2018.
