 Entering Link 1 = C:\G16W\l1.exe PID=      8916.
  
 Copyright (c) 1988-2017, Gaussian, Inc.  All Rights Reserved.
  
 This is part of the Gaussian(R) 16 program.  It is based on
 the Gaussian(R) 09 system (copyright 2009, Gaussian, Inc.),
 the Gaussian(R) 03 system (copyright 2003, Gaussian, Inc.),
 the Gaussian(R) 98 system (copyright 1998, Gaussian, Inc.),
 the Gaussian(R) 94 system (copyright 1995, Gaussian, Inc.),
 the Gaussian 92(TM) system (copyright 1992, Gaussian, Inc.),
 the Gaussian 90(TM) system (copyright 1990, Gaussian, Inc.),
 the Gaussian 88(TM) system (copyright 1988, Gaussian, Inc.),
 the Gaussian 86(TM) system (copyright 1986, Carnegie Mellon
 University), and the Gaussian 82(TM) system (copyright 1983,
 Carnegie Mellon University). Gaussian is a federally registered
 trademark of Gaussian, Inc.
  
 This software contains proprietary and confidential information,
 including trade secrets, belonging to Gaussian, Inc.
  
 This software is provided under written license and may be
 used, copied, transmitted, or stored only in accord with that
 written license.
  
 The following legend is applicable only to US Government
 contracts under FAR:
  
                    RESTRICTED RIGHTS LEGEND
  
 Use, reproduction and disclosure by the US Government is
 subject to restrictions as set forth in subparagraphs (a)
 and (c) of the Commercial Computer Software - Restricted
 Rights clause in FAR 52.227-19.
  
 Gaussian, Inc.
 340 Quinnipiac St., Bldg. 40, Wallingford CT 06492
  
  
 ---------------------------------------------------------------
 Warning -- This program may not be used in any manner that
 competes with the business of Gaussian, Inc. or will provide
 assistance to any competitor of Gaussian, Inc.  The licensee
 of this program is prohibited from giving any competitor of
 Gaussian, Inc. access to this program.  By using this program,
 the user acknowledges that Gaussian, Inc. is engaged in the
 business of creating and licensing software in the field of
 computational chemistry and represents and warrants to the
 licensee that it is not a competitor of Gaussian, Inc. and that
 it will not use this program in any manner prohibited above.
 ---------------------------------------------------------------
  

 Cite this work as:
 Gaussian 16, Revision B.01,
 M. J. Frisch, G. W. Trucks, H. B. Schlegel, G. E. Scuseria, 
 M. A. Robb, J. R. Cheeseman, G. Scalmani, V. Barone, 
 G. A. Petersson, H. Nakatsuji, X. Li, M. Caricato, A. V. Marenich, 
 J. Bloino, B. G. Janesko, R. Gomperts, B. Mennucci, H. P. Hratchian, 
 J. V. Ortiz, A. F. Izmaylov, J. L. Sonnenberg, D. Williams-Young, 
 F. Ding, F. Lipparini, F. Egidi, J. Goings, B. Peng, A. Petrone, 
 T. Henderson, D. Ranasinghe, V. G. Zakrzewski, J. Gao, N. Rega, 
 G. Zheng, W. Liang, M. Hada, M. Ehara, K. Toyota, R. Fukuda, 
 J. Hasegawa, M. Ishida, T. Nakajima, Y. Honda, O. Kitao, H. Nakai, 
 T. Vreven, K. Throssell, J. A. Montgomery, Jr., J. E. Peralta, 
 F. Ogliaro, M. J. Bearpark, J. J. Heyd, E. N. Brothers, K. N. Kudin, 
 V. N. Staroverov, T. A. Keith, R. Kobayashi, J. Normand, 
 K. Raghavachari, A. P. Rendell, J. C. Burant, S. S. Iyengar, 
 J. Tomasi, M. Cossi, J. M. Millam, M. Klene, C. Adamo, R. Cammi, 
 J. W. Ochterski, R. L. Martin, K. Morokuma, O. Farkas, 
 J. B. Foresman, and D. J. Fox, Gaussian, Inc., Wallingford CT, 2016.
 
 ******************************************
 Gaussian 16:  EM64W-G16RevB.01 16-Dec-2017
                22-Jul-2018 
 ******************************************
 %nproc=2
 Will use up to    2 processors via shared memory.
 %mem=4gb
 %chk=TiO21aHigher2.chk
 ------------------------------------------
 # MP2 Def2TZVP opt=(noeigen,z-matrix) freq
 ------------------------------------------
 1/10=7,11=1,18=40,38=1/1,3;
 2/12=2,17=6,18=5,29=3,40=1/2;
 3/5=44,7=101,11=9,25=1,30=1,71=1/1,2,3;
 4//1;
 5/5=2,38=5/2;
 8/6=4,10=1/1;
 9/15=2,16=-3/6;
 10/5=1/2;
 6/7=2,8=2,9=2,10=2/1;
 7/12=2,29=1/1,2,3,16;
 1/10=7,11=1,18=40/3(2);
 2/29=3/2;
 99//99;
 2/29=3/2;
 3/5=44,7=101,11=9,25=1,30=1,71=1/1,2,3;
 4/5=5,16=3,69=1/1;
 5/5=2,38=5/2;
 8/6=4,10=1/1;
 9/15=2,16=-3/6;
 10/5=1/2;
 7/12=2/1,2,3,16;
 1/11=1,18=40/3(-8);
 2/29=3/2;
 6/7=2,8=2,9=2,10=2/1;
 99/9=10/99;
 -------
 TiO21a1
 -------
 Symbolic Z-matrix:
 Charge =  0 Multiplicity = 1
 Ti
 O                    1    R1
 O                    1    R1       2    A1
       Variables:
  R1                    1.68346                  
       Constants:
  A1                   99.                       
 

 GradGradGradGradGradGradGradGradGradGradGradGradGradGradGradGradGradGrad
 Berny optimization.
 Initialization pass.
                       ----------------------------
                       !    Initial Parameters    !
                       ! (Angstroms and Degrees)  !
 ----------------------                            ----------------------
 !      Name          Value   Derivative information (Atomic Units)     !
 ------------------------------------------------------------------------
 !       R1          1.6835   estimate D2E/DX2                          !
 !       A1         99.0      Frozen                                    !
 ------------------------------------------------------------------------
 Trust Radius=3.00D-01 FncErr=1.00D-07 GrdErr=1.00D-07 EigMax=2.50D+02 EigMin=1.00D-04
 Number of steps in this run=     20 maximum allowed number of steps=    100.
 GradGradGradGradGradGradGradGradGradGradGradGradGradGradGradGradGradGrad

 ---------------------------------------------------------------------------------------------------
                            Z-MATRIX (ANGSTROMS AND DEGREES)
   CD    Cent   Atom    N1       Length/X        N2       Alpha/Y        N3        Beta/Z          J
 ---------------------------------------------------------------------------------------------------
      1      1  Ti
      2      2  O        1   1.683455(     1)
      3      3  O        1   1.683455(     2)      2   99.000(     3)
 ---------------------------------------------------------------------------------------------------
                         Z-Matrix orientation:                         
 ---------------------------------------------------------------------
 Center     Atomic      Atomic             Coordinates (Angstroms)
 Number     Number       Type             X           Y           Z
 ---------------------------------------------------------------------
      1         22           0        0.000000    0.000000    0.000000
      2          8           0        0.000000    0.000000    1.683455
      3          8           0        1.662729    0.000000   -0.263350
 ---------------------------------------------------------------------
                    Distance matrix (angstroms):
                    1          2          3
     1  Ti   0.000000
     2  O    1.683455   0.000000
     3  O    1.683455   2.560219   0.000000
 Stoichiometry    O2Ti
 Framework group  C2V[C2(Ti),SGV(O2)]
 Deg. of freedom     2
 Full point group                 C2V     NOp   4
 Largest Abelian subgroup         C2V     NOp   4
 Largest concise Abelian subgroup C2      NOp   2
                         Standard orientation:                         
 ---------------------------------------------------------------------
 Center     Atomic      Atomic             Coordinates (Angstroms)
 Number     Number       Type             X           Y           Z
 ---------------------------------------------------------------------
      1         22           0        0.000000    0.000000    0.460344
      2          8           0        0.000000    1.280109   -0.632973
      3          8           0        0.000000   -1.280109   -0.632973
 ---------------------------------------------------------------------
 Rotational constants (GHZ):          22.0341046           9.6407575           6.7064368
 Standard basis: def2TZVP (5D, 7F)
 There are    50 symmetry adapted cartesian basis functions of A1  symmetry.
 There are    16 symmetry adapted cartesian basis functions of A2  symmetry.
 There are    22 symmetry adapted cartesian basis functions of B1  symmetry.
 There are    36 symmetry adapted cartesian basis functions of B2  symmetry.
 There are    41 symmetry adapted basis functions of A1  symmetry.
 There are    15 symmetry adapted basis functions of A2  symmetry.
 There are    20 symmetry adapted basis functions of B1  symmetry.
 There are    31 symmetry adapted basis functions of B2  symmetry.
   107 basis functions,   204 primitive gaussians,   124 cartesian basis functions
    19 alpha electrons       19 beta electrons
       nuclear repulsion energy       123.8759655837 Hartrees.
 NAtoms=    3 NActive=    3 NUniq=    2 SFac= 2.25D+00 NAtFMM=   60 NAOKFM=F Big=F
 Integral buffers will be    131072 words long.
 Raffenetti 1 integral format.
 Two-electron integral symmetry is turned on.
 One-electron integrals computed using PRISM.
   4 Symmetry operations used in ECPInt.
 ECPInt:  NShTT=     703 NPrTT=    3029 LenC2=     698 LenP2D=    2559.
 LDataN:  DoStor=T MaxTD1= 6 Len=  172
 NBasis=   107 RedAO= T EigKep=  3.37D-03  NBF=    41    15    20    31
 NBsUse=   107 1.00D-06 EigRej= -1.00D+00 NBFU=    41    15    20    31
 ExpMin= 3.27D-02 ExpMax= 2.12D+05 ExpMxC= 2.04D+03 IAcc=3 IRadAn=         5 AccDes= 0.00D+00
 Harris functional with IExCor=  205 and IRadAn=       5 diagonalized for initial guess.
 HarFok:  IExCor=  205 AccDes= 0.00D+00 IRadAn=         5 IDoV= 1 UseB2=F ITyADJ=14
 ICtDFT=  3500011 ScaDFX=  1.000000  1.000000  1.000000  1.000000
 FoFCou: FMM=F IPFlag=           0 FMFlag=      100000 FMFlg1=           0
         NFxFlg=           0 DoJE=T BraDBF=F KetDBF=T FulRan=T
         wScrn=  0.000000 ICntrl=       500 IOpCl=  0 I1Cent=   200000004 NGrid=           0
         NMat0=    1 NMatS0=      1 NMatT0=    0 NMatD0=    1 NMtDS0=    0 NMtDT0=    0
 Petite list used in FoFCou.
 Initial guess orbital symmetries:
       Occupied  (A1) (A1) (A1) (B2) (B2) (A1) (B1) (A1) (B2) (A1)
                 (B1) (A1) (B2) (A1) (B2) (B1) (A2) (A1) (B2)
       Virtual   (A1) (B1) (A2) (A1) (B2) (A1) (B1) (A1) (B2) (A2)
                 (B1) (A1) (A1) (B2) (A1) (B2) (A1) (A1) (B2) (A2)
                 (B1) (B1) (A2) (A1) (B2) (A1) (B2) (A1) (B1) (A1)
                 (B2) (B1) (A2) (B2) (A1) (A1) (B1) (A2) (A1) (B2)
                 (B1) (B2) (A1) (A1) (B1) (A2) (B2) (A1) (B2) (B1)
                 (A1) (A2) (B2) (A1) (B2) (B1) (A2) (A1) (A1) (B2)
                 (A1) (B2) (A2) (B2) (A2) (B1) (A1) (B2) (A1) (B1)
                 (B2) (B1) (A2) (A1) (A1) (B2) (A2) (A1) (B1) (B2)
                 (B2) (B1) (A2) (A1) (A1) (B2) (A1) (B2)
 The electronic state of the initial guess is 1-A1.
 Keep R1 ints in memory in symmetry-blocked form, NReq=20959436.
 Requested convergence on RMS density matrix=1.00D-08 within 128 cycles.
 Requested convergence on MAX density matrix=1.00D-06.
 Requested convergence on             energy=1.00D-06.
 No special actions if energy rises.
 SCF Done:  E(RHF) =  -998.141419294     A.U. after   17 cycles
            NFock= 17  Conv=0.50D-08     -V/T= 2.0006
 ExpMin= 3.27D-02 ExpMax= 2.12D+05 ExpMxC= 2.04D+03 IAcc=3 IRadAn=         5 AccDes= 0.00D+00
 HarFok:  IExCor=  205 AccDes= 0.00D+00 IRadAn=         5 IDoV=-2 UseB2=F ITyADJ=14
 ICtDFT= 12500011 ScaDFX=  1.000000  1.000000  1.000000  1.000000
 Range of M.O.s used for correlation:    12   107
 NBasis=   107 NAE=    19 NBE=    19 NFC=    11 NFV=     0
 NROrb=     96 NOA=     8 NOB=     8 NVA=    88 NVB=    88
 Fully direct method using O(ONN) memory.
 JobTyp=1 Pass  1:  I=  12 to  19 NPSUse=  2 ParTrn=T ParDer=T DoDerP=T.
 Spin components of T(2) and E(2):
     alpha-alpha T2 =       0.4606182404D-01 E2=     -0.1053565998D+00
     alpha-beta  T2 =       0.1980450947D+00 E2=     -0.5068812863D+00
     beta-beta   T2 =       0.4606182404D-01 E2=     -0.1053565998D+00
 ANorm=    0.1135855952D+01
 E2 =    -0.7175944859D+00 EUMP2 =    -0.99885901378031D+03
          IDoAtm=111
          Differentiating once with respect to electric field.
                with respect to dipole field.
          Differentiating once with respect to nuclear coordinates.
 Keep R1 ints in memory in symmetry-blocked form, NReq=20960211.
          There are     1 degrees of freedom in the 1st order CPHF.  IDoFFX=0 NUNeed=     1.
 LinEq1:  Iter=  0 NonCon=     1 RMS=1.55D-02 Max=2.56D-01 NDo=     1
 AX will form     1 AO Fock derivatives at one time.
 LinEq1:  Iter=  1 NonCon=     1 RMS=8.69D-03 Max=1.07D-01 NDo=     1
 LinEq1:  Iter=  2 NonCon=     1 RMS=4.38D-03 Max=6.45D-02 NDo=     1
 LinEq1:  Iter=  3 NonCon=     1 RMS=2.02D-03 Max=2.40D-02 NDo=     1
 LinEq1:  Iter=  4 NonCon=     1 RMS=5.53D-04 Max=6.33D-03 NDo=     1
 LinEq1:  Iter=  5 NonCon=     1 RMS=1.74D-04 Max=3.24D-03 NDo=     1
 LinEq1:  Iter=  6 NonCon=     1 RMS=5.91D-05 Max=7.60D-04 NDo=     1
 LinEq1:  Iter=  7 NonCon=     1 RMS=1.64D-05 Max=1.75D-04 NDo=     1
 LinEq1:  Iter=  8 NonCon=     1 RMS=3.71D-06 Max=4.73D-05 NDo=     1
 LinEq1:  Iter=  9 NonCon=     1 RMS=8.81D-07 Max=1.14D-05 NDo=     1
 LinEq1:  Iter= 10 NonCon=     1 RMS=1.98D-07 Max=3.29D-06 NDo=     1
 LinEq1:  Iter= 11 NonCon=     1 RMS=4.17D-08 Max=5.67D-07 NDo=     1
 LinEq1:  Iter= 12 NonCon=     1 RMS=8.37D-09 Max=1.09D-07 NDo=     1
 LinEq1:  Iter= 13 NonCon=     1 RMS=1.73D-09 Max=2.77D-08 NDo=     1
 LinEq1:  Iter= 14 NonCon=     1 RMS=4.55D-10 Max=6.08D-09 NDo=     1
 LinEq1:  Iter= 15 NonCon=     1 RMS=8.21D-11 Max=1.01D-09 NDo=     1
 LinEq1:  Iter= 16 NonCon=     0 RMS=1.32D-11 Max=1.56D-10 NDo=     1
 Linear equations converged to 1.000D-10 1.000D-09 after    16 iterations.
 End of Minotr F.D. properties file   721 does not exist.
 End of Minotr F.D. properties file   722 does not exist.
 End of Minotr F.D. properties file   788 does not exist.

 **********************************************************************

            Population analysis using the SCF Density.

 **********************************************************************

 Orbital symmetries:
       Occupied  (A1) (A1) (B2) (A1) (A1) (B2) (B1) (A1) (A1) (B2)
                 (B1) (A1) (B2) (A1) (B2) (A1) (B1) (A2) (B2)
       Virtual   (A1) (B1) (A1) (B2) (A1) (A2) (B1) (A1) (A2) (A1)
                 (B2) (A1) (B1) (B2) (A1) (B2) (A1) (A2) (B1) (A1)
                 (B2) (A1) (B1) (B2) (A2) (A1) (A1) (B2) (B1) (A1)
                 (B2) (B1) (B2) (A1) (A2) (A1) (B1) (A2) (A1) (B2)
                 (B2) (A1) (B1) (A1) (A2) (B1) (B2) (A1) (B2) (B1)
                 (A2) (A1) (B2) (A1) (B2) (B1) (A2) (A1) (A1) (B2)
                 (A1) (B2) (A2) (B2) (A2) (B1) (A1) (B2) (A1) (B1)
                 (B2) (B1) (A2) (A1) (A1) (B2) (A2) (A1) (B1) (B2)
                 (B2) (A2) (B1) (A1) (A1) (B2) (A1) (B2)
 The electronic state is 1-A1.
 Alpha  occ. eigenvalues -- -183.40853 -21.58074 -20.50526 -20.50526 -17.94851
 Alpha  occ. eigenvalues --  -17.94756 -17.94697  -2.98948  -1.92222  -1.92165
 Alpha  occ. eigenvalues --   -1.91071  -1.15603  -1.14793  -0.48791  -0.48139
 Alpha  occ. eigenvalues --   -0.43498  -0.43196  -0.43089  -0.38932
 Alpha virt. eigenvalues --   -0.04069   0.04446   0.05105   0.08008   0.12547
 Alpha virt. eigenvalues --    0.12849   0.16902   0.17151   0.17321   0.18254
 Alpha virt. eigenvalues --    0.22131   0.22649   0.22655   0.29820   0.33595
 Alpha virt. eigenvalues --    0.61485   0.63548   0.66024   0.66778   0.67944
 Alpha virt. eigenvalues --    0.72987   0.77334   0.78058   0.79053   0.79342
 Alpha virt. eigenvalues --    0.81122   0.99323   1.00327   1.22339   1.39191
 Alpha virt. eigenvalues --    1.48277   1.52699   1.56358   1.56799   1.57649
 Alpha virt. eigenvalues --    1.59404   1.61788   1.83368   1.89930   1.93484
 Alpha virt. eigenvalues --    1.98845   2.03496   2.04641   2.16354   2.18089
 Alpha virt. eigenvalues --    2.18352   2.26918   2.33981   2.43296   2.52690
 Alpha virt. eigenvalues --    2.58605   2.62375   2.78028   2.79028   3.14081
 Alpha virt. eigenvalues --    3.18333   3.20358   3.31965   3.42281   3.42978
 Alpha virt. eigenvalues --    4.25202   4.37300   5.62111   5.63285   5.64118
 Alpha virt. eigenvalues --    5.64169   5.64357   5.64437   5.65828   5.69197
 Alpha virt. eigenvalues --    5.79297   5.80473   5.85850   5.88213   6.12041
 Alpha virt. eigenvalues --    6.26589   6.81003   6.82367   6.83015   6.85057
 Alpha virt. eigenvalues --    7.03265   7.06235   7.06305   7.15963   7.39135
 Alpha virt. eigenvalues --    7.58349  45.08538  45.08871
          Condensed to atoms (all electrons):
               1          2          3
     1  Ti  19.745088   0.391231   0.391231
     2  O    0.391231   8.361711  -0.016717
     3  O    0.391231  -0.016717   8.361711
 Mulliken charges:
               1
     1  Ti   1.472450
     2  O   -0.736225
     3  O   -0.736225
 Sum of Mulliken charges =   0.00000
 Mulliken charges with hydrogens summed into heavy atoms:
               1
     1  Ti   1.472450
     2  O   -0.736225
     3  O   -0.736225
 Electronic spatial extent (au):  <R**2>=            194.6348
 Charge=              0.0000 electrons
 Dipole moment (field-independent basis, Debye):
    X=              0.0000    Y=              0.0000    Z=              9.1932  Tot=              9.1932
 Quadrupole moment (field-independent basis, Debye-Ang):
   XX=            -22.5402   YY=            -37.6059   ZZ=            -22.5256
   XY=              0.0000   XZ=              0.0000   YZ=              0.0000
 Traceless Quadrupole moment (field-independent basis, Debye-Ang):
   XX=              5.0170   YY=            -10.0487   ZZ=              5.0316
   XY=              0.0000   XZ=              0.0000   YZ=              0.0000
 Octapole moment (field-independent basis, Debye-Ang**2):
  XXX=              0.0000  YYY=              0.0000  ZZZ=             16.2762  XYY=              0.0000
  XXY=              0.0000  XXZ=              5.2300  XZZ=              0.0000  YZZ=              0.0000
  YYZ=              9.2674  XYZ=              0.0000
 Hexadecapole moment (field-independent basis, Debye-Ang**3):
 XXXX=            -20.3387 YYYY=           -176.8484 ZZZZ=            -59.1836 XXXY=              0.0000
 XXXZ=              0.0000 YYYX=              0.0000 YYYZ=              0.0000 ZZZX=              0.0000
 ZZZY=              0.0000 XXYY=            -30.4156 XXZZ=            -12.8835 YYZZ=            -39.4418
 XXYZ=              0.0000 YYXZ=              0.0000 ZZXY=              0.0000
 N-N= 1.238759655837D+02 E-N=-2.614496165315D+03  KE= 9.975559908165D+02
 Symmetry A1   KE= 7.286163775092D+02
 Symmetry A2   KE= 4.246039365401D+00
 Symmetry B1   KE= 9.713295094251D+01
 Symmetry B2   KE= 1.675606229994D+02
   4 Symmetry operations used in ECPInt.
 ECPInt:  NShTT=     703 NPrTT=    3029 LenC2=     698 LenP2D=    2559.
 LDataN:  DoStor=T MaxTD1= 7 Len=  274
 Calling FoFJK, ICntrl=  10002127 FMM=F ISym2X=1 I1Cent= 0 IOpClX= 0 NMat=1 NMatS=1 NMatT=0.
 ***** Axes restored to original set *****
 -------------------------------------------------------------------
 Center     Atomic                   Forces (Hartrees/Bohr)
 Number     Number              X              Y              Z
 -------------------------------------------------------------------
      1       22           0.014500562    0.000000000    0.012384650
      2        8          -0.013194191    0.000000000    0.000767099
      3        8          -0.001306371    0.000000000   -0.013151749
 -------------------------------------------------------------------
 Cartesian Forces:  Max     0.014500562 RMS     0.008900662
 -----------------------------------------------------------------------------------------------
                       Internal Coordinate Forces (Hartree/Bohr or radian)
  Cent   Atom   N1       Length/X         N2         Alpha/Y        N3         Beta/Z          J
 -----------------------------------------------------------------------------------------------
      1  Ti
      2  O        1   0.000767(     1)
      3  O        1   0.000767(     2)      2   0.041974(     3)
 -----------------------------------------------------------------------------------------------
 Internal  Forces:  Max     0.041974271 RMS     0.024241950

 GradGradGradGradGradGradGradGradGradGradGradGradGradGradGradGradGradGrad
 Berny optimization.
 Search for a local minimum.
 Step number   1 out of a maximum of   20
 All quantities printed in internal units (Hartrees-Bohrs-Radians)
 Second derivative matrix not updated -- first step.
 The second derivative matrix:
                          R1        A1
           R1           0.69507
           A1           0.00000   0.25000
 ITU=  0
     Eigenvalues ---    0.695071000.00000
 RFO step:  Lambda=-3.38636753D-06 EMin= 6.95070614D-01
 Linear search not attempted -- first point.
 Variable       Old X    -DE/DX   Delta X   Delta X   Delta X     New X
                                 (Linear)    (Quad)   (Total)
    R1        3.18127   0.00153   0.00000   0.00221   0.00221   3.18348
    A1        1.72788   0.04197   0.00000   0.00000   0.00000   1.72788
         Item               Value     Threshold  Converged?
 Maximum Force            0.001534     0.000450     NO 
 RMS     Force            0.001534     0.000300     NO 
 Maximum Displacement     0.002207     0.001800     NO 
 RMS     Displacement     0.001561     0.001200     NO 
 Predicted change in Energy=-1.693184D-06
 GradGradGradGradGradGradGradGradGradGradGradGradGradGradGradGradGradGrad

 ---------------------------------------------------------------------------------------------------
                            Z-MATRIX (ANGSTROMS AND DEGREES)
   CD    Cent   Atom    N1       Length/X        N2       Alpha/Y        N3        Beta/Z          J
 ---------------------------------------------------------------------------------------------------
      1      1  Ti
      2      2  O        1   1.684623(     1)
      3      3  O        1   1.684623(     2)      2   99.000(     3)
 ---------------------------------------------------------------------------------------------------
                         Z-Matrix orientation:                         
 ---------------------------------------------------------------------
 Center     Atomic      Atomic             Coordinates (Angstroms)
 Number     Number       Type             X           Y           Z
 ---------------------------------------------------------------------
      1         22           0        0.000000    0.000000    0.000000
      2          8           0        0.000000    0.000000    1.684623
      3          8           0        1.663883    0.000000   -0.263533
 ---------------------------------------------------------------------
                    Distance matrix (angstroms):
                    1          2          3
     1  Ti   0.000000
     2  O    1.684623   0.000000
     3  O    1.684623   2.561995   0.000000
 Stoichiometry    O2Ti
 Framework group  C2V[C2(Ti),SGV(O2)]
 Deg. of freedom     2
 Full point group                 C2V     NOp   4
 Largest Abelian subgroup         C2V     NOp   4
 Largest concise Abelian subgroup C2      NOp   2
                         Standard orientation:                         
 ---------------------------------------------------------------------
 Center     Atomic      Atomic             Coordinates (Angstroms)
 Number     Number       Type             X           Y           Z
 ---------------------------------------------------------------------
      1         22           0        0.000000    0.000000    0.460663
      2          8           0        0.000000    1.280997   -0.633412
      3          8           0        0.000000   -1.280997   -0.633412
 ---------------------------------------------------------------------
 Rotational constants (GHZ):          22.0035608           9.6273935           6.6971403
 Standard basis: def2TZVP (5D, 7F)
 There are    50 symmetry adapted cartesian basis functions of A1  symmetry.
 There are    16 symmetry adapted cartesian basis functions of A2  symmetry.
 There are    22 symmetry adapted cartesian basis functions of B1  symmetry.
 There are    36 symmetry adapted cartesian basis functions of B2  symmetry.
 There are    41 symmetry adapted basis functions of A1  symmetry.
 There are    15 symmetry adapted basis functions of A2  symmetry.
 There are    20 symmetry adapted basis functions of B1  symmetry.
 There are    31 symmetry adapted basis functions of B2  symmetry.
   107 basis functions,   204 primitive gaussians,   124 cartesian basis functions
    19 alpha electrons       19 beta electrons
       nuclear repulsion energy       123.7900769115 Hartrees.
 NAtoms=    3 NActive=    3 NUniq=    2 SFac= 2.25D+00 NAtFMM=   60 NAOKFM=F Big=F
 Integral buffers will be    131072 words long.
 Raffenetti 1 integral format.
 Two-electron integral symmetry is turned on.
 One-electron integrals computed using PRISM.
   4 Symmetry operations used in ECPInt.
 ECPInt:  NShTT=     703 NPrTT=    3029 LenC2=     698 LenP2D=    2559.
 LDataN:  DoStor=T MaxTD1= 6 Len=  172
 NBasis=   107 RedAO= T EigKep=  3.37D-03  NBF=    41    15    20    31
 NBsUse=   107 1.00D-06 EigRej= -1.00D+00 NBFU=    41    15    20    31
 Initial guess from the checkpoint file:  "TiO21aHigher2.chk"
 B after Tr=     0.000000    0.000000    0.000000
         Rot=    1.000000    0.000000    0.000000    0.000000 Ang=   0.00 deg.
 Initial guess orbital symmetries:
       Occupied  (A1) (A1) (B2) (A1) (A1) (B2) (B1) (A1) (A1) (B2)
                 (B1) (A1) (B2) (A1) (B2) (A1) (B1) (A2) (B2)
       Virtual   (A1) (B1) (A1) (B2) (A1) (A2) (B1) (A1) (A2) (A1)
                 (B2) (A1) (B1) (B2) (A1) (B2) (A1) (A2) (B1) (A1)
                 (B2) (A1) (B1) (B2) (A2) (A1) (A1) (B2) (B1) (A1)
                 (B2) (B1) (B2) (A1) (A2) (A1) (B1) (A2) (A1) (B2)
                 (B2) (A1) (B1) (A1) (A2) (B1) (B2) (A1) (B2) (B1)
                 (A2) (A1) (B2) (A1) (B2) (B1) (A2) (A1) (A1) (B2)
                 (A1) (B2) (A2) (B2) (A2) (B1) (A1) (B2) (A1) (B1)
                 (B2) (B1) (A2) (A1) (A1) (B2) (A2) (A1) (B1) (B2)
                 (B2) (A2) (B1) (A1) (A1) (B2) (A1) (B2)
 Keep R1 ints in memory in symmetry-blocked form, NReq=20959436.
 Requested convergence on RMS density matrix=1.00D-08 within 128 cycles.
 Requested convergence on MAX density matrix=1.00D-06.
 Requested convergence on             energy=1.00D-06.
 No special actions if energy rises.
 SCF Done:  E(RHF) =  -998.141065349     A.U. after   11 cycles
            NFock= 11  Conv=0.64D-08     -V/T= 2.0006
 ExpMin= 3.27D-02 ExpMax= 2.12D+05 ExpMxC= 2.04D+03 IAcc=3 IRadAn=         5 AccDes= 0.00D+00
 HarFok:  IExCor=  205 AccDes= 0.00D+00 IRadAn=         5 IDoV=-2 UseB2=F ITyADJ=14
 ICtDFT= 12500011 ScaDFX=  1.000000  1.000000  1.000000  1.000000
 Range of M.O.s used for correlation:    12   107
 NBasis=   107 NAE=    19 NBE=    19 NFC=    11 NFV=     0
 NROrb=     96 NOA=     8 NOB=     8 NVA=    88 NVB=    88
 Fully direct method using O(ONN) memory.
 JobTyp=1 Pass  1:  I=  12 to  19 NPSUse=  2 ParTrn=T ParDer=T DoDerP=T.
 Spin components of T(2) and E(2):
     alpha-alpha T2 =       0.4613978201D-01 E2=     -0.1054102123D+00
     alpha-beta  T2 =       0.1983669024D+00 E2=     -0.5071295064D+00
     beta-beta   T2 =       0.4613978201D-01 E2=     -0.1054102123D+00
 ANorm=    0.1136066224D+01
 E2 =    -0.7179499310D+00 EUMP2 =    -0.99885901528042D+03
          IDoAtm=111
          Differentiating once with respect to electric field.
                with respect to dipole field.
          Differentiating once with respect to nuclear coordinates.
 Keep R1 ints in memory in symmetry-blocked form, NReq=20960211.
          There are     1 degrees of freedom in the 1st order CPHF.  IDoFFX=0 NUNeed=     1.
 LinEq1:  Iter=  0 NonCon=     1 RMS=1.55D-02 Max=2.56D-01 NDo=     1
 AX will form     1 AO Fock derivatives at one time.
 LinEq1:  Iter=  1 NonCon=     1 RMS=8.71D-03 Max=1.07D-01 NDo=     1
 LinEq1:  Iter=  2 NonCon=     1 RMS=4.39D-03 Max=6.47D-02 NDo=     1
 LinEq1:  Iter=  3 NonCon=     1 RMS=2.03D-03 Max=2.42D-02 NDo=     1
 LinEq1:  Iter=  4 NonCon=     1 RMS=5.57D-04 Max=6.38D-03 NDo=     1
 LinEq1:  Iter=  5 NonCon=     1 RMS=1.75D-04 Max=3.26D-03 NDo=     1
 LinEq1:  Iter=  6 NonCon=     1 RMS=5.94D-05 Max=7.63D-04 NDo=     1
 LinEq1:  Iter=  7 NonCon=     1 RMS=1.66D-05 Max=1.77D-04 NDo=     1
 LinEq1:  Iter=  8 NonCon=     1 RMS=3.75D-06 Max=4.77D-05 NDo=     1
 LinEq1:  Iter=  9 NonCon=     1 RMS=8.89D-07 Max=1.15D-05 NDo=     1
 LinEq1:  Iter= 10 NonCon=     1 RMS=1.99D-07 Max=3.32D-06 NDo=     1
 LinEq1:  Iter= 11 NonCon=     1 RMS=4.21D-08 Max=5.70D-07 NDo=     1
 LinEq1:  Iter= 12 NonCon=     1 RMS=8.45D-09 Max=1.10D-07 NDo=     1
 LinEq1:  Iter= 13 NonCon=     1 RMS=1.74D-09 Max=2.81D-08 NDo=     1
 LinEq1:  Iter= 14 NonCon=     1 RMS=4.59D-10 Max=6.13D-09 NDo=     1
 LinEq1:  Iter= 15 NonCon=     1 RMS=8.28D-11 Max=1.02D-09 NDo=     1
 LinEq1:  Iter= 16 NonCon=     0 RMS=1.33D-11 Max=1.58D-10 NDo=     1
 Linear equations converged to 1.000D-10 1.000D-09 after    16 iterations.
 End of Minotr F.D. properties file   721 does not exist.
 End of Minotr F.D. properties file   722 does not exist.
 End of Minotr F.D. properties file   788 does not exist.
   4 Symmetry operations used in ECPInt.
 ECPInt:  NShTT=     703 NPrTT=    3029 LenC2=     698 LenP2D=    2559.
 LDataN:  DoStor=T MaxTD1= 7 Len=  274
 Calling FoFJK, ICntrl=  10002127 FMM=F ISym2X=1 I1Cent= 0 IOpClX= 0 NMat=1 NMatS=1 NMatT=0.
 ***** Axes restored to original set *****
 -------------------------------------------------------------------
 Center     Atomic                   Forces (Hartrees/Bohr)
 Number     Number              X              Y              Z
 -------------------------------------------------------------------
      1       22           0.015297391    0.000000000    0.013065206
      2        8          -0.013161428    0.000000000   -0.000078022
      3        8          -0.002135963    0.000000000   -0.012987184
 -------------------------------------------------------------------
 Cartesian Forces:  Max     0.015297391 RMS     0.009135817
 -----------------------------------------------------------------------------------------------
                       Internal Coordinate Forces (Hartree/Bohr or radian)
  Cent   Atom   N1       Length/X         N2         Alpha/Y        N3         Beta/Z          J
 -----------------------------------------------------------------------------------------------
      1  Ti
      2  O        1  -0.000078(     1)
      3  O        1  -0.000078(     2)      2   0.041899(     3)
 -----------------------------------------------------------------------------------------------
 Internal  Forces:  Max     0.041899096 RMS     0.024190538

 GradGradGradGradGradGradGradGradGradGradGradGradGradGradGradGradGradGrad
 Berny optimization.
 Search for a local minimum.
 Step number   2 out of a maximum of   20
 All quantities printed in internal units (Hartrees-Bohrs-Radians)
 Update second derivatives using D2CorN and points    1    2
 DE= -1.50D-06 DEPred=-1.69D-06 R= 8.86D-01
 TightC=F SS=  1.41D+00  RLast= 2.21D-03 DXNew= 5.0454D-01 6.6217D-03
 Trust test= 8.86D-01 RLast= 2.21D-03 DXMaxT set to 3.00D-01
 The second derivative matrix:
                          R1        A1
           R1           0.76577
           A1           0.01703   0.25000
 ITU=  1  0
     Eigenvalues ---    0.765771000.00000
 RFO step:  Lambda= 0.00000000D+00 EMin= 7.65770590D-01
 Quartic linear search produced a step of -0.09520.
 Variable       Old X    -DE/DX   Delta X   Delta X   Delta X     New X
                                 (Linear)    (Quad)   (Total)
    R1        3.18348  -0.00016  -0.00021   0.00000  -0.00021   3.18327
    A1        1.72788   0.04190   0.00000   0.00000   0.00000   1.72788
         Item               Value     Threshold  Converged?
 Maximum Force            0.000156     0.000450     YES
 RMS     Force            0.000156     0.000300     YES
 Maximum Displacement     0.000210     0.001800     YES
 RMS     Displacement     0.000149     0.001200     YES
 Predicted change in Energy=-1.588355D-08
 Optimization completed.
    -- Stationary point found.
                       ----------------------------
                       !   Optimized Parameters   !
                       ! (Angstroms and Degrees)  !
 ----------------------                            ----------------------
 !      Name          Value   Derivative information (Atomic Units)     !
 ------------------------------------------------------------------------
 !       R1          1.6846   -DE/DX =   -0.0002                        !
 !       A1         99.0      -DE/DX =    0.0419                        !
 ------------------------------------------------------------------------
 GradGradGradGradGradGradGradGradGradGradGradGradGradGradGradGradGradGrad

 ---------------------------------------------------------------------------------------------------
                            Z-MATRIX (ANGSTROMS AND DEGREES)
   CD    Cent   Atom    N1       Length/X        N2       Alpha/Y        N3        Beta/Z          J
 ---------------------------------------------------------------------------------------------------
      1      1  Ti
      2      2  O        1   1.684623(     1)
      3      3  O        1   1.684623(     2)      2   99.000(     3)
 ---------------------------------------------------------------------------------------------------
                         Z-Matrix orientation:                         
 ---------------------------------------------------------------------
 Center     Atomic      Atomic             Coordinates (Angstroms)
 Number     Number       Type             X           Y           Z
 ---------------------------------------------------------------------
      1         22           0        0.000000    0.000000    0.000000
      2          8           0        0.000000    0.000000    1.684623
      3          8           0        1.663883    0.000000   -0.263533
 ---------------------------------------------------------------------
                    Distance matrix (angstroms):
                    1          2          3
     1  Ti   0.000000
     2  O    1.684623   0.000000
     3  O    1.684623   2.561995   0.000000
 Stoichiometry    O2Ti
 Framework group  C2V[C2(Ti),SGV(O2)]
 Deg. of freedom     2
 Full point group                 C2V     NOp   4
 Largest Abelian subgroup         C2V     NOp   4
 Largest concise Abelian subgroup C2      NOp   2
                         Standard orientation:                         
 ---------------------------------------------------------------------
 Center     Atomic      Atomic             Coordinates (Angstroms)
 Number     Number       Type             X           Y           Z
 ---------------------------------------------------------------------
      1         22           0        0.000000    0.000000    0.460663
      2          8           0        0.000000    1.280997   -0.633412
      3          8           0        0.000000   -1.280997   -0.633412
 ---------------------------------------------------------------------
 Rotational constants (GHZ):          22.0035608           9.6273935           6.6971403

 **********************************************************************

            Population analysis using the SCF Density.

 **********************************************************************

 Orbital symmetries:
       Occupied  (A1) (A1) (B2) (A1) (A1) (B2) (B1) (A1) (A1) (B2)
                 (B1) (A1) (B2) (A1) (B2) (A1) (B1) (A2) (B2)
       Virtual   (A1) (B1) (A1) (B2) (A1) (A2) (B1) (A1) (A2) (A1)
                 (B2) (A1) (B1) (B2) (A1) (B2) (A1) (A2) (B1) (A1)
                 (B2) (A1) (B1) (B2) (A2) (A1) (A1) (B2) (B1) (A1)
                 (B2) (B1) (B2) (A1) (A2) (A1) (B1) (A2) (A1) (B2)
                 (B2) (A1) (B1) (A1) (A2) (B1) (B2) (A1) (B2) (B1)
                 (A2) (A1) (B2) (A1) (B2) (B1) (A2) (A1) (A1) (B2)
                 (A1) (B2) (A2) (B2) (A2) (B1) (A1) (B2) (A1) (B1)
                 (B2) (B1) (A2) (A1) (A1) (B2) (A2) (A1) (B1) (B2)
                 (B2) (A2) (B1) (A1) (A1) (B2) (A1) (B2)
 The electronic state is 1-A1.
 Alpha  occ. eigenvalues -- -183.40915 -21.58136 -20.50539 -20.50539 -17.94913
 Alpha  occ. eigenvalues --  -17.94818 -17.94761  -2.98993  -1.92253  -1.92191
 Alpha  occ. eigenvalues --   -1.91118  -1.15605  -1.14795  -0.48765  -0.48128
 Alpha  occ. eigenvalues --   -0.43498  -0.43176  -0.43070  -0.38928
 Alpha virt. eigenvalues --   -0.04083   0.04421   0.05079   0.07986   0.12536
 Alpha virt. eigenvalues --    0.12800   0.16881   0.17129   0.17313   0.18250
 Alpha virt. eigenvalues --    0.22094   0.22601   0.22631   0.29806   0.33595
 Alpha virt. eigenvalues --    0.61454   0.63528   0.66006   0.66759   0.67934
 Alpha virt. eigenvalues --    0.72983   0.77320   0.78055   0.79055   0.79343
 Alpha virt. eigenvalues --    0.81108   0.99332   1.00326   1.22310   1.39145
 Alpha virt. eigenvalues --    1.48173   1.52718   1.56324   1.56793   1.57582
 Alpha virt. eigenvalues --    1.59388   1.61731   1.83363   1.89879   1.93424
 Alpha virt. eigenvalues --    1.98771   2.03411   2.04568   2.16336   2.18062
 Alpha virt. eigenvalues --    2.18317   2.26803   2.33878   2.43208   2.52576
 Alpha virt. eigenvalues --    2.58486   2.62273   2.77907   2.78925   3.14051
 Alpha virt. eigenvalues --    3.18279   3.20307   3.31873   3.42217   3.42949
 Alpha virt. eigenvalues --    4.24915   4.37037   5.62123   5.63291   5.64126
 Alpha virt. eigenvalues --    5.64177   5.64364   5.64442   5.65817   5.69162
 Alpha virt. eigenvalues --    5.79243   5.80404   5.85759   5.88090   6.11845
 Alpha virt. eigenvalues --    6.26324   6.80993   6.82359   6.83000   6.85026
 Alpha virt. eigenvalues --    7.03184   7.06163   7.06231   7.15878   7.39067
 Alpha virt. eigenvalues --    7.58219  45.08388  45.08747
          Condensed to atoms (all electrons):
               1          2          3
     1  Ti  19.744206   0.391522   0.391522
     2  O    0.391522   8.361587  -0.016733
     3  O    0.391522  -0.016733   8.361587
 Mulliken charges:
               1
     1  Ti   1.472751
     2  O   -0.736376
     3  O   -0.736376
 Sum of Mulliken charges =   0.00000
 Mulliken charges with hydrogens summed into heavy atoms:
               1
     1  Ti   1.472751
     2  O   -0.736376
     3  O   -0.736376
 Electronic spatial extent (au):  <R**2>=            194.8408
 Charge=              0.0000 electrons
 Dipole moment (field-independent basis, Debye):
    X=              0.0000    Y=              0.0000    Z=              9.2007  Tot=              9.2007
 Quadrupole moment (field-independent basis, Debye-Ang):
   XX=            -22.5458   YY=            -37.6268   ZZ=            -22.5276
   XY=              0.0000   XZ=              0.0000   YZ=              0.0000
 Traceless Quadrupole moment (field-independent basis, Debye-Ang):
   XX=              5.0210   YY=            -10.0601   ZZ=              5.0391
   XY=              0.0000   XZ=              0.0000   YZ=              0.0000
 Octapole moment (field-independent basis, Debye-Ang**2):
  XXX=              0.0000  YYY=              0.0000  ZZZ=             16.2935  XYY=              0.0000
  XXY=              0.0000  XXZ=              5.2342  XZZ=              0.0000  YZZ=              0.0000
  YYZ=              9.2787  XYZ=              0.0000
 Hexadecapole moment (field-independent basis, Debye-Ang**3):
 XXXX=            -20.3536 YYYY=           -177.1042 ZZZZ=            -59.2495 XXXY=              0.0000
 XXXZ=              0.0000 YYYX=              0.0000 YYYZ=              0.0000 ZZZX=              0.0000
 ZZZY=              0.0000 XXYY=            -30.4549 XXZZ=            -12.8968 YYZZ=            -39.4952
 XXYZ=              0.0000 YYXZ=              0.0000 ZZXY=              0.0000
 N-N= 1.237900769115D+02 E-N=-2.614308632514D+03  KE= 9.975492109891D+02
 Symmetry A1   KE= 7.286130386922D+02
 Symmetry A2   KE= 4.245687844542D+00
 Symmetry B1   KE= 9.713298713861D+01
 Symmetry B2   KE= 1.675574973137D+02
 1|1|UNPC-DESKTOP-F4NP0R6|POpt|RMP2-FC|def2TZVP|O2Ti1|GARRETT|22-Jul-20
 18|1||# MP2 Def2TZVP opt=(noeigen,z-matrix) freq||TiO21a1||0,1|Ti|O,1,
 R1|O,1,R1,2,A1||R1=1.68462314|A1=99.||Version=EM64W-G16RevB.01|State=1
 -A1|HF=-998.1410653|MP2=-998.8590153|RMSD=6.429e-009|RMSF=9.136e-003|D
 ipole=-2.0072925,0.,-1.7143897|PG=C02V [C2(Ti1),SGV(O2)]||@


 ALTHOUGH J.J. COULD DIAGNOSE THE FAULTS OF AN
 APPARATUS WITH UNCANNY ACCURACY, IT WAS JUST AS
 WELL NOT TO LET HIM HANDLE IT.
   -- GEORGE THOMPSON, ABOUT HIS FATHER
 Job cpu time:       0 days  0 hours  0 minutes 42.0 seconds.
 Elapsed time:       0 days  0 hours  0 minutes 28.5 seconds.
 File lengths (MBytes):  RWF=     10 Int=      0 D2E=      0 Chk=      2 Scr=      1
 Normal termination of Gaussian 16 at Sun Jul 22 15:50:15 2018.
 Link1:  Proceeding to internal job step number  2.
 ----------------------------------------------------------------------
 #N Geom=AllCheck Guess=TCheck SCRF=Check GenChk RMP2(FC)/def2TZVP Freq
 ----------------------------------------------------------------------
 1/10=4,11=1,29=7,30=1,38=1,40=1/1,3;
 2/12=2,40=1/2;
 3/5=44,7=101,11=1,14=-4,25=1,30=1,70=2,71=2,116=1,140=1/1,2,3;
 4/5=101/1;
 5/5=2,38=6,98=1/2;
 8/6=3,8=1,10=1,19=11,30=-1/1;
 9/15=3,16=-3/6;
 11/6=1,8=1,15=11,17=12,24=-1,27=1,28=-2,29=300,32=6,42=3/1,2,10;
 10/6=2,21=1/2;
 8/6=4,8=1,10=1,19=11,30=-1/11,4;
 10/5=1,20=4/2;
 11/12=2,14=11,16=1,17=2,28=-2,42=3,76=2/2,10,12;
 6/7=2,8=2,9=2,10=2/1;
 7/8=1,10=1,12=2,25=1,44=2/1,2,3,16;
 1/10=4,11=1,30=1/3;
 99//99;
 Structure from the checkpoint file:  "TiO21aHigher2.chk"
 -------
 TiO21a1
 -------
 Charge =  0 Multiplicity = 1
 Z-Matrix found in chk file.
 Ti
 O,1,R1
 O,1,R1,2,A1
      Variables:
 R1=1.68462314
      Constants:
 A1=99.
 Recover connectivity data from disk.

 GradGradGradGradGradGradGradGradGradGradGradGradGradGradGradGradGradGrad
 Berny optimization.
 Initialization pass.
                       ----------------------------
                       !    Initial Parameters    !
                       ! (Angstroms and Degrees)  !
 ----------------------                            ----------------------
 !      Name          Value   Derivative information (Atomic Units)     !
 ------------------------------------------------------------------------
 !       R1          1.6846   calculate D2E/DX2 analytically            !
 !       A1         99.0      frozen, calculate D2E/DX2 analytically    !
 ------------------------------------------------------------------------
 Trust Radius=3.00D-01 FncErr=1.00D-07 GrdErr=1.00D-07 EigMax=2.50D+02 EigMin=1.00D-04
 Number of steps in this run=      2 maximum allowed number of steps=      2.
 GradGradGradGradGradGradGradGradGradGradGradGradGradGradGradGradGradGrad

                          Input orientation:                          
 ---------------------------------------------------------------------
 Center     Atomic      Atomic             Coordinates (Angstroms)
 Number     Number       Type             X           Y           Z
 ---------------------------------------------------------------------
      1         22           0        0.000000    0.000000    0.000000
      2          8           0        0.000000    0.000000    1.684623
      3          8           0        1.663883    0.000000   -0.263533
 ---------------------------------------------------------------------
                    Distance matrix (angstroms):
                    1          2          3
     1  Ti   0.000000
     2  O    1.684623   0.000000
     3  O    1.684623   2.561995   0.000000
 Stoichiometry    O2Ti
 Framework group  C2V[C2(Ti),SGV(O2)]
 Deg. of freedom     2
 Full point group                 C2V     NOp   4
 Largest Abelian subgroup         C2V     NOp   4
 Largest concise Abelian subgroup C2      NOp   2
                         Standard orientation:                         
 ---------------------------------------------------------------------
 Center     Atomic      Atomic             Coordinates (Angstroms)
 Number     Number       Type             X           Y           Z
 ---------------------------------------------------------------------
      1         22           0        0.000000    0.000000    0.460663
      2          8           0        0.000000    1.280997   -0.633412
      3          8           0        0.000000   -1.280997   -0.633412
 ---------------------------------------------------------------------
 Rotational constants (GHZ):          22.0035608           9.6273935           6.6971403
 Standard basis: def2TZVP (5D, 7F)
 There are    50 symmetry adapted cartesian basis functions of A1  symmetry.
 There are    16 symmetry adapted cartesian basis functions of A2  symmetry.
 There are    22 symmetry adapted cartesian basis functions of B1  symmetry.
 There are    36 symmetry adapted cartesian basis functions of B2  symmetry.
 There are    41 symmetry adapted basis functions of A1  symmetry.
 There are    15 symmetry adapted basis functions of A2  symmetry.
 There are    20 symmetry adapted basis functions of B1  symmetry.
 There are    31 symmetry adapted basis functions of B2  symmetry.
   107 basis functions,   204 primitive gaussians,   124 cartesian basis functions
    19 alpha electrons       19 beta electrons
       nuclear repulsion energy       123.7900769115 Hartrees.
 NAtoms=    3 NActive=    3 NUniq=    2 SFac= 2.25D+00 NAtFMM=   60 NAOKFM=F Big=F
 Integral buffers will be    131072 words long.
 Raffenetti 1 integral format.
 Two-electron integral symmetry is turned on.
 One-electron integrals computed using PRISM.
   4 Symmetry operations used in ECPInt.
 ECPInt:  NShTT=     703 NPrTT=    3029 LenC2=     698 LenP2D=    2559.
 LDataN:  DoStor=T MaxTD1= 6 Len=  172
 NBasis=   107 RedAO= T EigKep=  3.37D-03  NBF=    41    15    20    31
 NBsUse=   107 1.00D-06 EigRej= -1.00D+00 NBFU=    41    15    20    31
 Initial guess from the checkpoint file:  "TiO21aHigher2.chk"
 B after Tr=     0.000000    0.000000    0.000000
         Rot=    1.000000    0.000000    0.000000    0.000000 Ang=   0.00 deg.
 Initial guess orbital symmetries:
       Occupied  (A1) (A1) (B2) (A1) (A1) (B2) (B1) (A1) (A1) (B2)
                 (B1) (A1) (B2) (A1) (B2) (A1) (B1) (A2) (B2)
       Virtual   (A1) (B1) (A1) (B2) (A1) (A2) (B1) (A1) (A2) (A1)
                 (B2) (A1) (B1) (B2) (A1) (B2) (A1) (A2) (B1) (A1)
                 (B2) (A1) (B1) (B2) (A2) (A1) (A1) (B2) (B1) (A1)
                 (B2) (B1) (B2) (A1) (A2) (A1) (B1) (A2) (A1) (B2)
                 (B2) (A1) (B1) (A1) (A2) (B1) (B2) (A1) (B2) (B1)
                 (A2) (A1) (B2) (A1) (B2) (B1) (A2) (A1) (A1) (B2)
                 (A1) (B2) (A2) (B2) (A2) (B1) (A1) (B2) (A1) (B1)
                 (B2) (B1) (A2) (A1) (A1) (B2) (A2) (A1) (B1) (B2)
                 (B2) (A2) (B1) (A1) (A1) (B2) (A1) (B2)
 Keep R1 ints in memory in symmetry-blocked form, NReq=20959436.
 Requested convergence on RMS density matrix=1.00D-08 within 128 cycles.
 Requested convergence on MAX density matrix=1.00D-06.
 Requested convergence on             energy=1.00D-06.
 No special actions if energy rises.
 SCF Done:  E(RHF) =  -998.141065349     A.U. after    1 cycles
            NFock=  1  Conv=0.12D-08     -V/T= 2.0006
 ExpMin= 3.27D-02 ExpMax= 2.12D+05 ExpMxC= 2.04D+03 IAcc=3 IRadAn=         5 AccDes= 0.00D+00
 HarFok:  IExCor=  205 AccDes= 0.00D+00 IRadAn=         5 IDoV=-2 UseB2=F ITyADJ=14
 ICtDFT= 12500011 ScaDFX=  1.000000  1.000000  1.000000  1.000000
 Range of M.O.s used for correlation:    12   107
 NBasis=   107 NAE=    19 NBE=    19 NFC=    11 NFV=     0
 NROrb=     96 NOA=     8 NOB=     8 NVA=    88 NVB=    88
 Disk-based method using ON**2 memory for  8 occupieds at a time.
 Permanent disk used for amplitudes=     3450172 words.
 Estimated scratch disk usage=    17085867 words.
 Actual    scratch disk usage=    17085867 words.
 JobTyp=1 Pass  1:  I=  12 to  19 NPSUse=  2 ParTrn=T ParDer=T DoDerP=T.
 (rs|ai) integrals will be sorted in core.
 Spin components of T(2) and E(2):
     alpha-alpha T2 =       0.4613978299D-01 E2=     -0.1054102133D+00
     alpha-beta  T2 =       0.1983669046D+00 E2=     -0.5071295086D+00
     beta-beta   T2 =       0.4613978299D-01 E2=     -0.1054102133D+00
 ANorm=    0.1136066226D+01
 E2 =    -0.7179499351D+00 EUMP2 =    -0.99885901528451D+03
   4 Symmetry operations used in ECPInt.
 ECPInt:  NShTT=     703 NPrTT=    3029 LenC2=     698 LenP2D=    2559.
 LDataN:  DoStor=T MaxTD1= 7 Len=  274
 G2DrvN: will do     4 centers at a time, making    1 passes.
 Calling FoFCou, ICntrl=  3107 FMM=F I1Cent=   0 AccDes= 0.00D+00.
 End of G2Drv F.D. properties file   721 does not exist.
 End of G2Drv F.D. properties file   722 does not exist.
 End of G2Drv F.D. properties file   788 does not exist.
          IDoAtm=111
          Differentiating once with respect to electric field.
                with respect to dipole field.
          Differentiating once with respect to nuclear coordinates.
 Keep R1 ints in memory in symmetry-blocked form, NReq=20960211.
          There are    12 degrees of freedom in the 1st order CPHF.  IDoFFX=6 NUNeed=    12.
      9 vectors produced by pass  0 Test12= 1.39D-14 8.33D-09 XBig12= 1.60D+01 1.60D+00.
 AX will form     9 AO Fock derivatives at one time.
      9 vectors produced by pass  1 Test12= 1.39D-14 8.33D-09 XBig12= 6.15D+00 7.73D-01.
      9 vectors produced by pass  2 Test12= 1.39D-14 8.33D-09 XBig12= 4.30D-01 1.80D-01.
      9 vectors produced by pass  3 Test12= 1.39D-14 8.33D-09 XBig12= 3.30D-02 6.80D-02.
      9 vectors produced by pass  4 Test12= 1.39D-14 8.33D-09 XBig12= 1.21D-03 1.07D-02.
      9 vectors produced by pass  5 Test12= 1.39D-14 8.33D-09 XBig12= 3.42D-05 2.37D-03.
      9 vectors produced by pass  6 Test12= 1.39D-14 8.33D-09 XBig12= 9.72D-07 3.76D-04.
      9 vectors produced by pass  7 Test12= 1.39D-14 8.33D-09 XBig12= 1.18D-08 2.84D-05.
      9 vectors produced by pass  8 Test12= 1.39D-14 8.33D-09 XBig12= 1.49D-10 5.07D-06.
      6 vectors produced by pass  9 Test12= 1.39D-14 8.33D-09 XBig12= 3.50D-12 8.26D-07.
      3 vectors produced by pass 10 Test12= 1.39D-14 8.33D-09 XBig12= 4.04D-14 4.04D-08.
 InvSVY:  IOpt=1 It=  1 EMax= 8.88D-16
 Solved reduced A of dimension    90 with     9 vectors.
 End of Minotr F.D. properties file   721 does not exist.
 End of Minotr F.D. properties file   722 does not exist.
 End of Minotr F.D. properties file   788 does not exist.
 MDV=   536870912.
 Form MO integral derivatives with frozen-active canonical formalism.
 Discarding MO integrals.
 Reordered first order wavefunction length =      5591168
 In DefCFB: NBatch=  1 ICI= 19 ICA= 88 LFMax= 44
            Large arrays: LIAPS=    88736384 LIARS=    75467392 words.
 Semi-Direct transformation.
 ModeAB=           4 MOrb=            19 LenV=     536411169
 LASXX=     10151206 LTotXX=    10151206 LenRXX=    20592162
 LTotAB=    10440956 MaxLAS=     9845819 LenRXY=           0
 NonZer=    30743368 LenScr=    46879232 LnRSAI=     9845819
 LnScr1=    15544320 LExtra=           0 Total=     92861533
 MaxDsk=          -1 SrtSym=           T ITran=            4
 JobTyp=0 Pass  1:  I=   1 to  19.
 (rs|ai) integrals will be sorted in core.
 Spin components of T(2) and E(2):
     alpha-alpha T2 =       0.4613978299D-01 E2=     -0.1054102133D+00
     alpha-beta  T2 =       0.1983669046D+00 E2=     -0.5071295086D+00
     beta-beta   T2 =       0.4613978299D-01 E2=     -0.1054102133D+00
 ANorm=    0.1606640265D+01
 E2 =    -0.7179499351D+00 EUMP2 =    -0.99885901528451D+03
          IDoAtm=111
          Differentiating once with respect to electric field.
                with respect to dipole field.
          Differentiating once with respect to nuclear coordinates.
          There are     1 degrees of freedom in the 1st order CPHF.  IDoFFX=0 NUNeed=     1.
 LinEq1:  Iter=  0 NonCon=     1 RMS=1.55D-02 Max=2.56D-01 NDo=     1
 LinEq1:  Iter=  1 NonCon=     1 RMS=8.71D-03 Max=1.07D-01 NDo=     1
 LinEq1:  Iter=  2 NonCon=     1 RMS=4.39D-03 Max=6.47D-02 NDo=     1
 LinEq1:  Iter=  3 NonCon=     1 RMS=2.03D-03 Max=2.42D-02 NDo=     1
 LinEq1:  Iter=  4 NonCon=     1 RMS=5.57D-04 Max=6.38D-03 NDo=     1
 LinEq1:  Iter=  5 NonCon=     1 RMS=1.75D-04 Max=3.26D-03 NDo=     1
 LinEq1:  Iter=  6 NonCon=     1 RMS=5.94D-05 Max=7.63D-04 NDo=     1
 LinEq1:  Iter=  7 NonCon=     1 RMS=1.66D-05 Max=1.77D-04 NDo=     1
 LinEq1:  Iter=  8 NonCon=     1 RMS=3.75D-06 Max=4.77D-05 NDo=     1
 LinEq1:  Iter=  9 NonCon=     1 RMS=8.89D-07 Max=1.15D-05 NDo=     1
 LinEq1:  Iter= 10 NonCon=     1 RMS=1.99D-07 Max=3.32D-06 NDo=     1
 LinEq1:  Iter= 11 NonCon=     1 RMS=4.21D-08 Max=5.70D-07 NDo=     1
 LinEq1:  Iter= 12 NonCon=     1 RMS=8.45D-09 Max=1.10D-07 NDo=     1
 LinEq1:  Iter= 13 NonCon=     1 RMS=1.74D-09 Max=2.81D-08 NDo=     1
 LinEq1:  Iter= 14 NonCon=     1 RMS=4.59D-10 Max=6.13D-09 NDo=     1
 LinEq1:  Iter= 15 NonCon=     1 RMS=8.28D-11 Max=1.02D-09 NDo=     1
 LinEq1:  Iter= 16 NonCon=     0 RMS=1.33D-11 Max=1.58D-10 NDo=     1
 Linear equations converged to 1.000D-10 1.000D-09 after    16 iterations.
 End of Minotr F.D. properties file   721 does not exist.
 End of Minotr F.D. properties file   722 does not exist.
 End of Minotr F.D. properties file   788 does not exist.
 Symmetrizing basis deriv contribution to polar:
 IMax=3 JMax=2 DiffMx= 0.00D+00
 G2DrvN: will do     4 centers at a time, making    1 passes.
 Calling FoFCou, ICntrl=  3107 FMM=F I1Cent=   0 AccDes= 0.00D+00.
 End of G2Drv F.D. properties file   721 does not exist.
 End of G2Drv F.D. properties file   722 does not exist.
 End of G2Drv F.D. properties file   788 does not exist.
 R2 and R3 integrals will be kept in memory, NReq=    62010250.
 DD1Dir will call FoFMem   1 times, MxPair=       380
 NAB=   190 NAA=     0 NBB=     0.
 Discarding MO integrals.

 **********************************************************************

            Population analysis using the SCF Density.

 **********************************************************************

 Orbital symmetries:
       Occupied  (A1) (A1) (B2) (A1) (A1) (B2) (B1) (A1) (A1) (B2)
                 (B1) (A1) (B2) (A1) (B2) (A1) (B1) (A2) (B2)
       Virtual   (A1) (B1) (A1) (B2) (A1) (A2) (B1) (A1) (A2) (A1)
                 (B2) (A1) (B1) (B2) (A1) (B2) (A1) (A2) (B1) (A1)
                 (B2) (A1) (B1) (B2) (A2) (A1) (A1) (B2) (B1) (A1)
                 (B2) (B1) (B2) (A1) (A2) (A1) (B1) (A2) (A1) (B2)
                 (B2) (A1) (B1) (A1) (A2) (B1) (B2) (A1) (B2) (B1)
                 (A2) (A1) (B2) (A1) (B2) (B1) (A2) (A1) (A1) (B2)
                 (A1) (B2) (A2) (B2) (A2) (B1) (A1) (B2) (A1) (B1)
                 (B2) (B1) (A2) (A1) (A1) (B2) (A2) (A1) (B1) (B2)
                 (B2) (A2) (B1) (A1) (A1) (B2) (A1) (B2)
 The electronic state is 1-A1.
 Alpha  occ. eigenvalues -- -183.40915 -21.58136 -20.50539 -20.50539 -17.94913
 Alpha  occ. eigenvalues --  -17.94818 -17.94761  -2.98993  -1.92253  -1.92191
 Alpha  occ. eigenvalues --   -1.91118  -1.15605  -1.14795  -0.48765  -0.48128
 Alpha  occ. eigenvalues --   -0.43498  -0.43176  -0.43070  -0.38928
 Alpha virt. eigenvalues --   -0.04083   0.04421   0.05079   0.07986   0.12536
 Alpha virt. eigenvalues --    0.12800   0.16881   0.17129   0.17313   0.18250
 Alpha virt. eigenvalues --    0.22094   0.22601   0.22631   0.29806   0.33595
 Alpha virt. eigenvalues --    0.61454   0.63528   0.66006   0.66759   0.67934
 Alpha virt. eigenvalues --    0.72983   0.77320   0.78055   0.79055   0.79343
 Alpha virt. eigenvalues --    0.81108   0.99332   1.00326   1.22310   1.39145
 Alpha virt. eigenvalues --    1.48173   1.52718   1.56324   1.56793   1.57582
 Alpha virt. eigenvalues --    1.59388   1.61731   1.83363   1.89879   1.93424
 Alpha virt. eigenvalues --    1.98771   2.03411   2.04568   2.16336   2.18062
 Alpha virt. eigenvalues --    2.18317   2.26803   2.33878   2.43208   2.52576
 Alpha virt. eigenvalues --    2.58486   2.62273   2.77907   2.78925   3.14051
 Alpha virt. eigenvalues --    3.18279   3.20307   3.31873   3.42217   3.42949
 Alpha virt. eigenvalues --    4.24916   4.37037   5.62123   5.63291   5.64126
 Alpha virt. eigenvalues --    5.64177   5.64364   5.64442   5.65817   5.69162
 Alpha virt. eigenvalues --    5.79243   5.80404   5.85759   5.88090   6.11845
 Alpha virt. eigenvalues --    6.26324   6.80993   6.82359   6.83000   6.85026
 Alpha virt. eigenvalues --    7.03184   7.06163   7.06231   7.15878   7.39067
 Alpha virt. eigenvalues --    7.58219  45.08388  45.08747
          Condensed to atoms (all electrons):
               1          2          3
     1  Ti  19.744206   0.391522   0.391522
     2  O    0.391522   8.361587  -0.016733
     3  O    0.391522  -0.016733   8.361587
 Mulliken charges:
               1
     1  Ti   1.472751
     2  O   -0.736376
     3  O   -0.736376
 Sum of Mulliken charges =   0.00000
 Mulliken charges with hydrogens summed into heavy atoms:
               1
     1  Ti   1.472751
     2  O   -0.736376
     3  O   -0.736376
 APT charges:
               1
     1  Ti   1.222343
     2  O   -0.611171
     3  O   -0.611171
 Sum of APT charges =   0.00000
 APT charges with hydrogens summed into heavy atoms:
               1
     1  Ti   1.222343
     2  O   -0.611171
     3  O   -0.611171
 Electronic spatial extent (au):  <R**2>=            194.8408
 Charge=              0.0000 electrons
 Dipole moment (field-independent basis, Debye):
    X=              0.0000    Y=              0.0000    Z=              9.2007  Tot=              9.2007
 Quadrupole moment (field-independent basis, Debye-Ang):
   XX=            -22.5458   YY=            -37.6268   ZZ=            -22.5276
   XY=              0.0000   XZ=              0.0000   YZ=              0.0000
 Traceless Quadrupole moment (field-independent basis, Debye-Ang):
   XX=              5.0210   YY=            -10.0601   ZZ=              5.0391
   XY=              0.0000   XZ=              0.0000   YZ=              0.0000
 Octapole moment (field-independent basis, Debye-Ang**2):
  XXX=              0.0000  YYY=              0.0000  ZZZ=             16.2935  XYY=              0.0000
  XXY=              0.0000  XXZ=              5.2342  XZZ=              0.0000  YZZ=              0.0000
  YYZ=              9.2787  XYZ=              0.0000
 Hexadecapole moment (field-independent basis, Debye-Ang**3):
 XXXX=            -20.3536 YYYY=           -177.1042 ZZZZ=            -59.2495 XXXY=              0.0000
 XXXZ=              0.0000 YYYX=              0.0000 YYYZ=              0.0000 ZZZX=              0.0000
 ZZZY=              0.0000 XXYY=            -30.4549 XXZZ=            -12.8968 YYZZ=            -39.4952
 XXYZ=              0.0000 YYXZ=              0.0000 ZZXY=              0.0000
 N-N= 1.237900769115D+02 E-N=-2.614308632763D+03  KE= 9.975492110080D+02
 Symmetry A1   KE= 7.286130386849D+02
 Symmetry A2   KE= 4.245687865113D+00
 Symmetry B1   KE= 9.713298715018D+01
 Symmetry B2   KE= 1.675574973078D+02
  Exact polarizability:  19.209   0.000  55.086   0.000   0.000  32.180
 Approx polarizability:  16.487   0.000  40.240   0.000   0.000  35.520
   4 Symmetry operations used in ECPInt.
 ECPInt:  NShTT=     703 NPrTT=    3029 LenC2=     698 LenP2D=    2559.
 LDataN:  DoStor=T MaxTD1= 8 Len=  415
 Calling FoFJK, ICntrl=  10100127 FMM=F ISym2X=1 I1Cent= 0 IOpClX= 0 NMat=1 NMatS=1 NMatT=0.
 Full mass-weighted force constant matrix:
 Low frequencies ---  -76.1153   -6.5405   -0.0064   -0.0063   -0.0057  115.7590
 Low frequencies ---  359.9431  894.4710  923.4952
 Diagonal vibrational polarizability:
        0.0000000       6.5787866       0.4550394
 Harmonic frequencies (cm**-1), IR intensities (KM/Mole), Raman scattering
 activities (A**4/AMU), depolarization ratios for plane and unpolarized
 incident light, reduced masses (AMU), force constants (mDyne/A),
 and normal coordinates:
                      1                      2                      3
                     A1                     A1                     B2
 Frequencies --    359.9431               894.4710               923.4457
 Red. masses --     18.1716                18.7493                19.6381
 Frc consts  --      1.3871                 8.8383                 9.8667
 IR Inten    --      1.6419                 3.3892               208.4661
  Atom  AN      X      Y      Z        X      Y      Z        X      Y      Z
     1  22     0.00   0.00  -0.26     0.00   0.00   0.29     0.00   0.34   0.00
     2   8     0.00   0.56   0.39     0.00   0.51  -0.44     0.00  -0.51   0.43
     3   8     0.00  -0.56   0.39     0.00  -0.51  -0.44     0.00  -0.51  -0.43

 -------------------
 - Thermochemistry -
 -------------------
 Temperature   298.150 Kelvin.  Pressure   1.00000 Atm.
 Atom     1 has atomic number 22 and mass  47.94795
 Atom     2 has atomic number  8 and mass  15.99491
 Atom     3 has atomic number  8 and mass  15.99491
 Molecular mass:    79.93778 amu.
 Principal axes and moments of inertia in atomic units:
                           1         2         3
     Eigenvalues --    82.02042 187.45896 269.47938
           X            0.00000   0.00000   1.00000
           Y            1.00000   0.00000   0.00000
           Z            0.00000   1.00000   0.00000
 This molecule is an asymmetric top.
 Rotational symmetry number  2.
 Rotational temperatures (Kelvin)      1.05600     0.46204     0.32141
 Rotational constants (GHZ):          22.00356     9.62739     6.69714
 Zero-point vibrational energy      13026.5 (Joules/Mol)
                                    3.11341 (Kcal/Mol)
 Warning -- explicit consideration of   1 degrees of freedom as
           vibrations may cause significant error
 Vibrational temperatures:    517.88  1286.94  1328.63
          (Kelvin)
 
 Zero-point correction=                           0.004962 (Hartree/Particle)
 Thermal correction to Energy=                    0.008249
 Thermal correction to Enthalpy=                  0.009193
 Thermal correction to Gibbs Free Energy=        -0.020269
 Sum of electronic and zero-point Energies=           -998.854054
 Sum of electronic and thermal Energies=              -998.850766
 Sum of electronic and thermal Enthalpies=            -998.849822
 Sum of electronic and thermal Free Energies=         -998.879284
 
                     E (Thermal)             CV                S
                      KCal/Mol        Cal/Mol-Kelvin    Cal/Mol-Kelvin
 Total                    5.176              8.493             62.008
 Electronic               0.000              0.000              0.000
 Translational            0.889              2.981             39.051
 Rotational               0.889              2.981             21.565
 Vibrational              3.399              2.531              1.392
 Vibration     1          0.734              1.555              1.122
                       Q            Log10(Q)             Ln(Q)
 Total Bot       0.210348D+10          9.322938         21.466857
 Total V=0       0.402792D+12         11.605081         26.721686
 Vib (Bot)       0.649925D-02         -2.187137         -5.036069
 Vib (Bot)    1  0.509240D+00         -0.293078         -0.674836
 Vib (V=0)       0.124453D+01          0.095006          0.218760
 Vib (V=0)    1  0.121367D+01          0.084101          0.193649
 Electronic      0.100000D+01          0.000000          0.000000
 Translational   0.280920D+08          7.448582         17.150994
 Rotational      0.115211D+05          4.061492          9.351932
 ***** Axes restored to original set *****
 -------------------------------------------------------------------
 Center     Atomic                   Forces (Hartrees/Bohr)
 Number     Number              X              Y              Z
 -------------------------------------------------------------------
      1       22           0.015297394    0.000000000    0.013065209
      2        8          -0.013161428    0.000000000   -0.000078026
      3        8          -0.002135966    0.000000000   -0.012987183
 -------------------------------------------------------------------
 Cartesian Forces:  Max     0.015297394 RMS     0.009135818
 -----------------------------------------------------------------------------------------------
                       Internal Coordinate Forces (Hartree/Bohr or radian)
  Cent   Atom   N1       Length/X         N2         Alpha/Y        N3         Beta/Z          J
 -----------------------------------------------------------------------------------------------
      1  Ti
      2  O        1  -0.000078(     1)
      3  O        1  -0.000078(     2)      2   0.041899(     3)
 -----------------------------------------------------------------------------------------------
 Internal  Forces:  Max     0.041899094 RMS     0.024190537

 GradGradGradGradGradGradGradGradGradGradGradGradGradGradGradGradGradGrad
 Berny optimization.
 Search for a local minimum.
 Step number   1 out of a maximum of    2
 All quantities printed in internal units (Hartrees-Bohrs-Radians)
 Second derivative matrix not updated -- analytic derivatives used.
 The second derivative matrix:
                          R1        A1
           R1           0.76316
           A1           0.03408   0.30532
 ITU=  0
     Eigenvalues ---    0.763161000.00000
 Angle between quadratic step and forces=   0.00 degrees.
 Linear search not attempted -- first point.
 Variable       Old X    -DE/DX   Delta X   Delta X   Delta X     New X
                                 (Linear)    (Quad)   (Total)
    R1        3.18348  -0.00016   0.00000  -0.00020  -0.00020   3.18327
    A1        1.72788   0.04190   0.00000   0.00000   0.00000   1.72788
         Item               Value     Threshold  Converged?
 Maximum Force            0.000156     0.000450     YES
 RMS     Force            0.000156     0.000300     YES
 Maximum Displacement     0.000204     0.001800     YES
 RMS     Displacement     0.000145     0.001200     YES
 Predicted change in Energy=-1.595476D-08
 Optimization completed.
    -- Stationary point found.
                       ----------------------------
                       !   Optimized Parameters   !
                       ! (Angstroms and Degrees)  !
 ----------------------                            ----------------------
 !      Name          Value   Derivative information (Atomic Units)     !
 ------------------------------------------------------------------------
 !       R1          1.6846   -DE/DX =   -0.0002                        !
 !       A1         99.0      -DE/DX =    0.0419                        !
 ------------------------------------------------------------------------
 GradGradGradGradGradGradGradGradGradGradGradGradGradGradGradGradGradGrad


 ----------------------------------------------------------------------

 Electric dipole moment (input orientation):
 (Debye = 10**-18 statcoulomb cm , SI units = C m)
                  (au)            (Debye)         (10**-30 SI)
   Tot        0.263976D+01      0.670961D+01      0.223809D+02
   x         -0.200729D+01     -0.510203D+01     -0.170185D+02
   y          0.000000D+00      0.000000D+00      0.000000D+00
   z         -0.171439D+01     -0.435754D+01     -0.145352D+02

 Dipole polarizability, Alpha (input orientation).
 (esu units = cm**3 , SI units = C**2 m**2 J**-1)
 Alpha(0;0):
               (au)            (10**-24 esu)      (10**-40 SI)
   iso        0.354917D+02      0.525933D+01      0.585179D+01
   aniso      0.314655D+02      0.466270D+01      0.518796D+01
   xx         0.418415D+02      0.620026D+01      0.689872D+01
   yx         0.000000D+00      0.000000D+00      0.000000D+00
   yy         0.192088D+02      0.284645D+01      0.316710D+01
   zx        -0.113122D+02     -0.167630D+01     -0.186513D+01
   zy         0.000000D+00      0.000000D+00      0.000000D+00
   zz         0.454248D+02      0.673126D+01      0.748954D+01

 ----------------------------------------------------------------------

 Dipole orientation:
    22          0.00000000          0.00000000          0.00000000
     8         -2.42073442          0.00000000         -2.06750251
     8          2.42073442          0.00000000         -2.06750251

 Electric dipole moment (dipole orientation):
 (Debye = 10**-18 statcoulomb cm , SI units = C m)
                  (au)            (Debye)         (10**-30 SI)
   Tot        0.263976D+01      0.670961D+01      0.223809D+02
   x          0.000000D+00      0.000000D+00      0.000000D+00
   y          0.000000D+00      0.000000D+00      0.000000D+00
   z          0.263976D+01      0.670961D+01      0.223809D+02

 Dipole polarizability, Alpha (dipole orientation).
 (esu units = cm**3 , SI units = C**2 m**2 J**-1)
 Alpha(0;0):
               (au)            (10**-24 esu)      (10**-40 SI)
   iso        0.354917D+02      0.525933D+01      0.585179D+01
   aniso      0.314655D+02      0.466270D+01      0.518796D+01
   xx         0.550864D+02      0.816296D+01      0.908251D+01
   yx         0.000000D+00      0.000000D+00      0.000000D+00
   yy         0.192088D+02      0.284645D+01      0.316710D+01
   zx         0.000000D+00      0.000000D+00      0.000000D+00
   zy         0.000000D+00      0.000000D+00      0.000000D+00
   zz         0.321799D+02      0.476857D+01      0.530575D+01

 ----------------------------------------------------------------------
 1|1|UNPC-DESKTOP-F4NP0R6|Freq|RMP2-FC|def2TZVP|O2Ti1|GARRETT|22-Jul-20
 18|1||#N Geom=AllCheck Guess=TCheck SCRF=Check GenChk RMP2(FC)/def2TZV
 P Freq||TiO21a1||0,1|Ti|O,1,R1|O,1,R1,2,A1||R1=1.68462314|A1=99.||Vers
 ion=EM64W-G16RevB.01|State=1-A1|HF=-998.1410653|MP2=-998.8590153|RMSD=
 1.153e-009|RMSF=9.136e-003|ZeroPoint=0.0049615|Thermal=0.008249|Dipole
 =-2.0072925,0.,-1.7143897|DipoleDeriv=1.0569958,0.,-0.8720788,0.,1.276
 7888,0.,-0.8720788,0.,1.3332432,-0.3468656,0.,0.2489888,0.,-0.6383944,
 0.,0.5655545,0.,-0.8482539,-0.7101302,0.,0.62309,0.,-0.6383944,0.,0.30
 65243,0.,-0.4849893|Polar=41.8414506,0.,19.2087948,-11.3122168,0.,45.4
 248088|PG=C02V [C2(Ti1),SGV(O2)]|NImag=0||0.39365392,0.,0.00973040,-0.
 03673212,0.,0.40528951,-0.02957676,0.,-0.02110578,0.03015098,0.,-0.004
 86520,0.,0.,0.00067917,0.00485824,0.,-0.36989495,-0.00948719,0.,0.3760
 4778,-0.36407716,0.,0.05783790,-0.00057422,0.,0.00462896,0.36465138,0.
 ,-0.00486520,0.,0.,0.00418602,0.,0.,0.00067917,0.03187388,0.,-0.035394
 56,0.03059297,0.,-0.00615283,-0.06246685,0.,0.04154738||-0.01529739,0.
 ,-0.01306521,0.01316143,0.,0.00007803,0.00213597,0.,0.01298718|||@


 REALITY IS FOR PEOPLE WHO CAN'T FACE SCIENCE FICTION.
 Job cpu time:       0 days  0 hours  4 minutes 27.0 seconds.
 Elapsed time:       0 days  0 hours  4 minutes 15.4 seconds.
 File lengths (MBytes):  RWF=   1341 Int=      0 D2E=      0 Chk=      2 Scr=      1
 Normal termination of Gaussian 16 at Sun Jul 22 15:54:42 2018.
