 Entering Link 1 = C:\G16W\l1.exe PID=      3112.
  
 Copyright (c) 1988-2017, Gaussian, Inc.  All Rights Reserved.
  
 This is part of the Gaussian(R) 16 program.  It is based on
 the Gaussian(R) 09 system (copyright 2009, Gaussian, Inc.),
 the Gaussian(R) 03 system (copyright 2003, Gaussian, Inc.),
 the Gaussian(R) 98 system (copyright 1998, Gaussian, Inc.),
 the Gaussian(R) 94 system (copyright 1995, Gaussian, Inc.),
 the Gaussian 92(TM) system (copyright 1992, Gaussian, Inc.),
 the Gaussian 90(TM) system (copyright 1990, Gaussian, Inc.),
 the Gaussian 88(TM) system (copyright 1988, Gaussian, Inc.),
 the Gaussian 86(TM) system (copyright 1986, Carnegie Mellon
 University), and the Gaussian 82(TM) system (copyright 1983,
 Carnegie Mellon University). Gaussian is a federally registered
 trademark of Gaussian, Inc.
  
 This software contains proprietary and confidential information,
 including trade secrets, belonging to Gaussian, Inc.
  
 This software is provided under written license and may be
 used, copied, transmitted, or stored only in accord with that
 written license.
  
 The following legend is applicable only to US Government
 contracts under FAR:
  
                    RESTRICTED RIGHTS LEGEND
  
 Use, reproduction and disclosure by the US Government is
 subject to restrictions as set forth in subparagraphs (a)
 and (c) of the Commercial Computer Software - Restricted
 Rights clause in FAR 52.227-19.
  
 Gaussian, Inc.
 340 Quinnipiac St., Bldg. 40, Wallingford CT 06492
  
  
 ---------------------------------------------------------------
 Warning -- This program may not be used in any manner that
 competes with the business of Gaussian, Inc. or will provide
 assistance to any competitor of Gaussian, Inc.  The licensee
 of this program is prohibited from giving any competitor of
 Gaussian, Inc. access to this program.  By using this program,
 the user acknowledges that Gaussian, Inc. is engaged in the
 business of creating and licensing software in the field of
 computational chemistry and represents and warrants to the
 licensee that it is not a competitor of Gaussian, Inc. and that
 it will not use this program in any manner prohibited above.
 ---------------------------------------------------------------
  

 Cite this work as:
 Gaussian 16, Revision B.01,
 M. J. Frisch, G. W. Trucks, H. B. Schlegel, G. E. Scuseria, 
 M. A. Robb, J. R. Cheeseman, G. Scalmani, V. Barone, 
 G. A. Petersson, H. Nakatsuji, X. Li, M. Caricato, A. V. Marenich, 
 J. Bloino, B. G. Janesko, R. Gomperts, B. Mennucci, H. P. Hratchian, 
 J. V. Ortiz, A. F. Izmaylov, J. L. Sonnenberg, D. Williams-Young, 
 F. Ding, F. Lipparini, F. Egidi, J. Goings, B. Peng, A. Petrone, 
 T. Henderson, D. Ranasinghe, V. G. Zakrzewski, J. Gao, N. Rega, 
 G. Zheng, W. Liang, M. Hada, M. Ehara, K. Toyota, R. Fukuda, 
 J. Hasegawa, M. Ishida, T. Nakajima, Y. Honda, O. Kitao, H. Nakai, 
 T. Vreven, K. Throssell, J. A. Montgomery, Jr., J. E. Peralta, 
 F. Ogliaro, M. J. Bearpark, J. J. Heyd, E. N. Brothers, K. N. Kudin, 
 V. N. Staroverov, T. A. Keith, R. Kobayashi, J. Normand, 
 K. Raghavachari, A. P. Rendell, J. C. Burant, S. S. Iyengar, 
 J. Tomasi, M. Cossi, J. M. Millam, M. Klene, C. Adamo, R. Cammi, 
 J. W. Ochterski, R. L. Martin, K. Morokuma, O. Farkas, 
 J. B. Foresman, and D. J. Fox, Gaussian, Inc., Wallingford CT, 2016.
 
 ******************************************
 Gaussian 16:  EM64W-G16RevB.01 16-Dec-2017
                22-Jul-2018 
 ******************************************
 %nproc=2
 Will use up to    2 processors via shared memory.
 %mem=4gb
 %chk=TiO21aHigher1.chk
 -------------------------------------------------
 # MP2 Def2TZVP opt=(noeigen,calcfc,z-matrix) freq
 -------------------------------------------------
 1/10=4,11=1,18=40,38=1/1,3;
 2/12=2,17=6,18=5,29=3,40=1/2;
 3/5=44,7=101,11=9,25=1,30=1,71=2,140=1/1,2,3;
 4//1;
 5/5=2,38=5/2;
 8/6=3,8=1,10=1,19=11,30=-1/1;
 9/15=3,16=-3/6;
 11/6=1,8=1,15=11,17=12,24=-1,27=1,28=-2,29=300,32=6,42=3/1,2,10;
 10/6=2,21=1/2;
 8/6=4,8=1,10=1,19=11,30=-1/11,4;
 10/5=1,20=4/2;
 11/12=2,14=11,16=1,17=2,28=-2,42=3,76=2/2,10,12;
 6/7=2,8=2,9=2,10=2/1;
 7/10=1,12=2,25=1,44=2/1,2,3,16;
 1/10=4,11=1,18=40/3(2);
 2/29=3/2;
 99//99;
 2/29=3/2;
 3/5=44,7=101,11=9,25=1,30=1,71=1/1,2,3;
 4/5=5,16=3,69=1/1;
 5/5=2,38=5/2;
 8/6=4,10=1/1;
 9/15=2,16=-3/6;
 10/5=1/2;
 7/12=2/1,2,3,16;
 1/11=1,18=40/3(-8);
 2/29=3/2;
 6/7=2,8=2,9=2,10=2/1;
 99/9=10/99;
 -------
 TiO21a1
 -------
 Symbolic Z-matrix:
 Charge =  0 Multiplicity = 1
 Ti
 O                    1    R1
 O                    1    R1       2    A1
       Variables:
  R1                    1.62458                  
  A1                  113.98609                  
 

 GradGradGradGradGradGradGradGradGradGradGradGradGradGradGradGradGradGrad
 Berny optimization.
 Initialization pass.
                       ----------------------------
                       !    Initial Parameters    !
                       ! (Angstroms and Degrees)  !
 ----------------------                            ----------------------
 !      Name          Value   Derivative information (Atomic Units)     !
 ------------------------------------------------------------------------
 !       R1          1.6246   calculate D2E/DX2 analytically            !
 !       A1        113.9861   calculate D2E/DX2 analytically            !
 ------------------------------------------------------------------------
 Trust Radius=3.00D-01 FncErr=1.00D-07 GrdErr=1.00D-07 EigMax=2.50D+02 EigMin=1.00D-04
 Number of steps in this run=     20 maximum allowed number of steps=    100.
 GradGradGradGradGradGradGradGradGradGradGradGradGradGradGradGradGradGrad

 ---------------------------------------------------------------------------------------------------
                            Z-MATRIX (ANGSTROMS AND DEGREES)
   CD    Cent   Atom    N1       Length/X        N2       Alpha/Y        N3        Beta/Z          J
 ---------------------------------------------------------------------------------------------------
      1      1  Ti
      2      2  O        1   1.624581(     1)
      3      3  O        1   1.624581(     2)      2  113.986(     3)
 ---------------------------------------------------------------------------------------------------
                         Z-Matrix orientation:                         
 ---------------------------------------------------------------------
 Center     Atomic      Atomic             Coordinates (Angstroms)
 Number     Number       Type             X           Y           Z
 ---------------------------------------------------------------------
      1         22           0        0.000000    0.000000    0.000000
      2          8           0        0.000000    0.000000    1.624581
      3          8           0        1.484289    0.000000   -0.660416
 ---------------------------------------------------------------------
                    Distance matrix (angstroms):
                    1          2          3
     1  Ti   0.000000
     2  O    1.624581   0.000000
     3  O    1.624581   2.724761   0.000000
 Stoichiometry    O2Ti
 Framework group  C2V[C2(Ti),SGV(O2)]
 Deg. of freedom     2
 Full point group                 C2V     NOp   4
 Largest Abelian subgroup         C2V     NOp   4
 Largest concise Abelian subgroup C2      NOp   2
                         Standard orientation:                         
 ---------------------------------------------------------------------
 Center     Atomic      Atomic             Coordinates (Angstroms)
 Number     Number       Type             X           Y           Z
 ---------------------------------------------------------------------
      1         22           0        0.000000    0.000000    0.372621
      2          8           0        0.000000    1.362381   -0.512354
      3          8           0        0.000000   -1.362381   -0.512354
 ---------------------------------------------------------------------
 Rotational constants (GHZ):          33.6298373           8.5115437           6.7924169
 Standard basis: def2TZVP (5D, 7F)
 There are    50 symmetry adapted cartesian basis functions of A1  symmetry.
 There are    16 symmetry adapted cartesian basis functions of A2  symmetry.
 There are    22 symmetry adapted cartesian basis functions of B1  symmetry.
 There are    36 symmetry adapted cartesian basis functions of B2  symmetry.
 There are    41 symmetry adapted basis functions of A1  symmetry.
 There are    15 symmetry adapted basis functions of A2  symmetry.
 There are    20 symmetry adapted basis functions of B1  symmetry.
 There are    31 symmetry adapted basis functions of B2  symmetry.
   107 basis functions,   204 primitive gaussians,   124 cartesian basis functions
    19 alpha electrons       19 beta electrons
       nuclear repulsion energy       127.0869725608 Hartrees.
 NAtoms=    3 NActive=    3 NUniq=    2 SFac= 2.25D+00 NAtFMM=   60 NAOKFM=F Big=F
 Integral buffers will be    131072 words long.
 Raffenetti 1 integral format.
 Two-electron integral symmetry is turned on.
 One-electron integrals computed using PRISM.
   4 Symmetry operations used in ECPInt.
 ECPInt:  NShTT=     703 NPrTT=    3029 LenC2=     698 LenP2D=    2553.
 LDataN:  DoStor=T MaxTD1= 6 Len=  172
 NBasis=   107 RedAO= T EigKep=  3.36D-03  NBF=    41    15    20    31
 NBsUse=   107 1.00D-06 EigRej= -1.00D+00 NBFU=    41    15    20    31
 ExpMin= 3.27D-02 ExpMax= 2.12D+05 ExpMxC= 2.04D+03 IAcc=3 IRadAn=         5 AccDes= 0.00D+00
 Harris functional with IExCor=  205 and IRadAn=       5 diagonalized for initial guess.
 HarFok:  IExCor=  205 AccDes= 0.00D+00 IRadAn=         5 IDoV= 1 UseB2=F ITyADJ=14
 ICtDFT=  3500011 ScaDFX=  1.000000  1.000000  1.000000  1.000000
 FoFCou: FMM=F IPFlag=           0 FMFlag=      100000 FMFlg1=           0
         NFxFlg=           0 DoJE=T BraDBF=F KetDBF=T FulRan=T
         wScrn=  0.000000 ICntrl=       500 IOpCl=  0 I1Cent=   200000004 NGrid=           0
         NMat0=    1 NMatS0=      1 NMatT0=    0 NMatD0=    1 NMtDS0=    0 NMtDT0=    0
 Petite list used in FoFCou.
 Initial guess orbital symmetries:
       Occupied  (A1) (A1) (B2) (A1) (B2) (A1) (B1) (A1) (B2) (A1)
                 (B1) (A1) (B2) (A1) (B2) (A2) (B1) (A1) (B2)
       Virtual   (A1) (B1) (A1) (A2) (B2) (A1) (B1) (A1) (B1) (A2)
                 (B2) (A1) (A1) (B2) (A1) (A1) (B2) (B2) (A1) (B1)
                 (A2) (B1) (B2) (A2) (A1) (A1) (B2) (A1) (B1) (A1)
                 (B2) (B1) (A2) (B2) (A1) (A1) (B1) (A2) (B2) (A1)
                 (B1) (B2) (A1) (A1) (A2) (B1) (B2) (A1) (B2) (B1)
                 (A1) (A2) (B2) (A1) (B1) (A1) (A2) (B2) (B2) (A1)
                 (A1) (B2) (A2) (B2) (B1) (A2) (A1) (B2) (A1) (B1)
                 (A1) (B1) (A2) (B2) (B2) (A1) (A2) (B2) (A1) (B1)
                 (B1) (B2) (A2) (A1) (A1) (B2) (A1) (B2)
 The electronic state of the initial guess is 1-A1.
 Keep R1 ints in memory in symmetry-blocked form, NReq=20959436.
 Requested convergence on RMS density matrix=1.00D-08 within 128 cycles.
 Requested convergence on MAX density matrix=1.00D-06.
 Requested convergence on             energy=1.00D-06.
 No special actions if energy rises.
 SCF Done:  E(RHF) =  -998.168878095     A.U. after   15 cycles
            NFock= 15  Conv=0.98D-08     -V/T= 2.0002
 ExpMin= 3.27D-02 ExpMax= 2.12D+05 ExpMxC= 2.04D+03 IAcc=3 IRadAn=         5 AccDes= 0.00D+00
 HarFok:  IExCor=  205 AccDes= 0.00D+00 IRadAn=         5 IDoV=-2 UseB2=F ITyADJ=14
 ICtDFT= 12500011 ScaDFX=  1.000000  1.000000  1.000000  1.000000
 Range of M.O.s used for correlation:    12   107
 NBasis=   107 NAE=    19 NBE=    19 NFC=    11 NFV=     0
 NROrb=     96 NOA=     8 NOB=     8 NVA=    88 NVB=    88
 Disk-based method using ON**2 memory for  8 occupieds at a time.
 Permanent disk used for amplitudes=     3450172 words.
 Estimated scratch disk usage=    17063341 words.
 Actual    scratch disk usage=    17063341 words.
 JobTyp=1 Pass  1:  I=  12 to  19 NPSUse=  2 ParTrn=T ParDer=T DoDerP=T.
 (rs|ai) integrals will be sorted in core.
 Spin components of T(2) and E(2):
     alpha-alpha T2 =       0.4033645374D-01 E2=     -0.1002235076D+00
     alpha-beta  T2 =       0.1750311863D+00 E2=     -0.4858003191D+00
     beta-beta   T2 =       0.4033645374D-01 E2=     -0.1002235076D+00
 ANorm=    0.1120582033D+01
 E2 =    -0.6862473344D+00 EUMP2 =    -0.99885512542945D+03
   4 Symmetry operations used in ECPInt.
 ECPInt:  NShTT=     703 NPrTT=    3029 LenC2=     698 LenP2D=    2553.
 LDataN:  DoStor=T MaxTD1= 7 Len=  274
 G2DrvN: will do     4 centers at a time, making    1 passes.
 Calling FoFCou, ICntrl=  3107 FMM=F I1Cent=   0 AccDes= 0.00D+00.
 End of G2Drv F.D. properties file   721 does not exist.
 End of G2Drv F.D. properties file   722 does not exist.
 End of G2Drv F.D. properties file   788 does not exist.
          IDoAtm=111
          Differentiating once with respect to electric field.
                with respect to dipole field.
          Differentiating once with respect to nuclear coordinates.
 Keep R1 ints in memory in symmetry-blocked form, NReq=20960211.
          There are    12 degrees of freedom in the 1st order CPHF.  IDoFFX=6 NUNeed=    12.
      9 vectors produced by pass  0 Test12= 1.39D-14 8.33D-09 XBig12= 1.50D+01 1.41D+00.
 AX will form     9 AO Fock derivatives at one time.
      9 vectors produced by pass  1 Test12= 1.39D-14 8.33D-09 XBig12= 3.25D+00 5.85D-01.
      9 vectors produced by pass  2 Test12= 1.39D-14 8.33D-09 XBig12= 2.96D-01 1.60D-01.
      9 vectors produced by pass  3 Test12= 1.39D-14 8.33D-09 XBig12= 2.02D-02 5.97D-02.
      9 vectors produced by pass  4 Test12= 1.39D-14 8.33D-09 XBig12= 6.80D-04 7.20D-03.
      9 vectors produced by pass  5 Test12= 1.39D-14 8.33D-09 XBig12= 2.39D-05 1.64D-03.
      9 vectors produced by pass  6 Test12= 1.39D-14 8.33D-09 XBig12= 6.31D-07 2.54D-04.
      9 vectors produced by pass  7 Test12= 1.39D-14 8.33D-09 XBig12= 7.96D-09 1.97D-05.
      9 vectors produced by pass  8 Test12= 1.39D-14 8.33D-09 XBig12= 8.89D-11 4.06D-06.
      5 vectors produced by pass  9 Test12= 1.39D-14 8.33D-09 XBig12= 1.50D-12 4.94D-07.
      3 vectors produced by pass 10 Test12= 1.39D-14 8.33D-09 XBig12= 2.14D-14 4.53D-08.
 InvSVY:  IOpt=1 It=  1 EMax= 4.44D-16
 Solved reduced A of dimension    89 with     9 vectors.
 End of Minotr F.D. properties file   721 does not exist.
 End of Minotr F.D. properties file   722 does not exist.
 End of Minotr F.D. properties file   788 does not exist.
 MDV=   536870912.
 Form MO integral derivatives with frozen-active canonical formalism.
 Discarding MO integrals.
 Reordered first order wavefunction length =      5591168
 In DefCFB: NBatch=  1 ICI= 19 ICA= 88 LFMax= 44
            Large arrays: LIAPS=    88736384 LIARS=    75467392 words.
 Semi-Direct transformation.
 ModeAB=           4 MOrb=            19 LenV=     536411219
 LASXX=     10151206 LTotXX=    10151206 LenRXX=    20592162
 LTotAB=    10440956 MaxLAS=     9825489 LenRXY=           0
 NonZer=    30743368 LenScr=    46879232 LnRSAI=     9825489
 LnScr1=    15513600 LExtra=           0 Total=     92810483
 MaxDsk=          -1 SrtSym=           T ITran=            4
 JobTyp=0 Pass  1:  I=   1 to  19.
 (rs|ai) integrals will be sorted in core.
 Spin components of T(2) and E(2):
     alpha-alpha T2 =       0.4033645374D-01 E2=     -0.1002235076D+00
     alpha-beta  T2 =       0.1750311863D+00 E2=     -0.4858003191D+00
     beta-beta   T2 =       0.4033645374D-01 E2=     -0.1002235076D+00
 ANorm=    0.1584742309D+01
 E2 =    -0.6862473344D+00 EUMP2 =    -0.99885512542945D+03
          IDoAtm=111
          Differentiating once with respect to electric field.
                with respect to dipole field.
          Differentiating once with respect to nuclear coordinates.
          There are     1 degrees of freedom in the 1st order CPHF.  IDoFFX=0 NUNeed=     1.
 LinEq1:  Iter=  0 NonCon=     1 RMS=1.36D-02 Max=2.10D-01 NDo=     1
 LinEq1:  Iter=  1 NonCon=     1 RMS=6.74D-03 Max=7.50D-02 NDo=     1
 LinEq1:  Iter=  2 NonCon=     1 RMS=3.19D-03 Max=4.24D-02 NDo=     1
 LinEq1:  Iter=  3 NonCon=     1 RMS=1.42D-03 Max=1.45D-02 NDo=     1
 LinEq1:  Iter=  4 NonCon=     1 RMS=3.09D-04 Max=3.51D-03 NDo=     1
 LinEq1:  Iter=  5 NonCon=     1 RMS=8.78D-05 Max=9.25D-04 NDo=     1
 LinEq1:  Iter=  6 NonCon=     1 RMS=2.87D-05 Max=3.17D-04 NDo=     1
 LinEq1:  Iter=  7 NonCon=     1 RMS=7.72D-06 Max=1.03D-04 NDo=     1
 LinEq1:  Iter=  8 NonCon=     1 RMS=1.54D-06 Max=2.02D-05 NDo=     1
 LinEq1:  Iter=  9 NonCon=     1 RMS=3.64D-07 Max=5.79D-06 NDo=     1
 LinEq1:  Iter= 10 NonCon=     1 RMS=9.02D-08 Max=1.09D-06 NDo=     1
 LinEq1:  Iter= 11 NonCon=     1 RMS=1.90D-08 Max=2.55D-07 NDo=     1
 LinEq1:  Iter= 12 NonCon=     1 RMS=3.59D-09 Max=5.24D-08 NDo=     1
 LinEq1:  Iter= 13 NonCon=     1 RMS=6.66D-10 Max=9.77D-09 NDo=     1
 LinEq1:  Iter= 14 NonCon=     1 RMS=1.58D-10 Max=2.27D-09 NDo=     1
 LinEq1:  Iter= 15 NonCon=     0 RMS=3.39D-11 Max=4.56D-10 NDo=     1
 Linear equations converged to 1.000D-10 1.000D-09 after    15 iterations.
 End of Minotr F.D. properties file   721 does not exist.
 End of Minotr F.D. properties file   722 does not exist.
 End of Minotr F.D. properties file   788 does not exist.
 Symmetrizing basis deriv contribution to polar:
 IMax=3 JMax=2 DiffMx= 0.00D+00
 G2DrvN: will do     4 centers at a time, making    1 passes.
 Calling FoFCou, ICntrl=  3107 FMM=F I1Cent=   0 AccDes= 0.00D+00.
 End of G2Drv F.D. properties file   721 does not exist.
 End of G2Drv F.D. properties file   722 does not exist.
 End of G2Drv F.D. properties file   788 does not exist.
 R2 and R3 integrals will be kept in memory, NReq=    62010250.
 DD1Dir will call FoFMem   1 times, MxPair=       380
 NAB=   190 NAA=     0 NBB=     0.
 Discarding MO integrals.

 **********************************************************************

            Population analysis using the SCF Density.

 **********************************************************************

 Orbital symmetries:
       Occupied  (A1) (A1) (A1) (B2) (A1) (B2) (B1) (A1) (B2) (A1)
                 (B1) (A1) (B2) (A1) (B2) (A2) (B1) (A1) (B2)
       Virtual   (A1) (B1) (A1) (B2) (A1) (A2) (A1) (B1) (A2) (A1)
                 (B1) (B2) (A1) (B2) (A1) (B2) (A1) (B1) (A2) (A1)
                 (B2) (A1) (B1) (B2) (A2) (A1) (B2) (A1) (B1) (A1)
                 (B2) (B1) (A1) (B2) (A2) (A1) (B1) (A2) (B2) (A1)
                 (B2) (B1) (A1) (A1) (A2) (B1) (B2) (A1) (B1) (B2)
                 (A1) (A2) (B2) (A1) (B1) (B2) (A2) (A1) (A1) (B2)
                 (A1) (B2) (A2) (B2) (B1) (A2) (A1) (B2) (A1) (B1)
                 (A1) (B1) (A2) (B2) (B2) (A1) (A2) (B2) (A1) (B1)
                 (B1) (B2) (A2) (A1) (A1) (B2) (A1) (B2)
 The electronic state is 1-A1.
 Alpha  occ. eigenvalues -- -183.38308 -21.55869 -20.50531 -20.50531 -17.92647
 Alpha  occ. eigenvalues --  -17.92498 -17.92482  -2.97785  -1.92683  -1.91169
 Alpha  occ. eigenvalues --   -1.89759  -1.17102  -1.14933  -0.51300  -0.49445
 Alpha  occ. eigenvalues --   -0.46409  -0.43932  -0.43657  -0.41041
 Alpha virt. eigenvalues --   -0.03322   0.05294   0.05815   0.10190   0.12727
 Alpha virt. eigenvalues --    0.16162   0.17577   0.17591   0.17756   0.19249
 Alpha virt. eigenvalues --    0.22377   0.23080   0.27201   0.29621   0.33025
 Alpha virt. eigenvalues --    0.63459   0.64050   0.66527   0.67237   0.69813
 Alpha virt. eigenvalues --    0.73782   0.76230   0.76894   0.78107   0.79058
 Alpha virt. eigenvalues --    0.82118   0.99059   1.00145   1.23086   1.36420
 Alpha virt. eigenvalues --    1.52326   1.53133   1.56814   1.58719   1.58962
 Alpha virt. eigenvalues --    1.60938   1.64035   1.83567   1.87125   1.91812
 Alpha virt. eigenvalues --    2.02574   2.04877   2.12507   2.14338   2.17350
 Alpha virt. eigenvalues --    2.23440   2.30860   2.38437   2.55147   2.57832
 Alpha virt. eigenvalues --    2.62057   2.64702   2.80956   2.85098   3.18633
 Alpha virt. eigenvalues --    3.23448   3.24260   3.26404   3.42470   3.42524
 Alpha virt. eigenvalues --    4.34444   4.52202   5.61277   5.62180   5.62696
 Alpha virt. eigenvalues --    5.62711   5.62783   5.63694   5.65992   5.68853
 Alpha virt. eigenvalues --    5.82103   5.83363   5.90225   5.91619   6.26148
 Alpha virt. eigenvalues --    6.32470   6.79972   6.82426   6.83442   6.84199
 Alpha virt. eigenvalues --    7.07749   7.10047   7.10291   7.16969   7.39684
 Alpha virt. eigenvalues --    7.60700  45.12976  45.16785
          Condensed to atoms (all electrons):
               1          2          3
     1  Ti  19.741249   0.361213   0.361213
     2  O    0.361213   8.395226   0.011723
     3  O    0.361213   0.011723   8.395226
 Mulliken charges:
               1
     1  Ti   1.536325
     2  O   -0.768163
     3  O   -0.768163
 Sum of Mulliken charges =   0.00000
 Mulliken charges with hydrogens summed into heavy atoms:
               1
     1  Ti   1.536325
     2  O   -0.768163
     3  O   -0.768163
 APT charges:
               1
     1  Ti   1.617196
     2  O   -0.808598
     3  O   -0.808598
 Sum of APT charges =   0.00000
 APT charges with hydrogens summed into heavy atoms:
               1
     1  Ti   1.617196
     2  O   -0.808598
     3  O   -0.808598
 Electronic spatial extent (au):  <R**2>=            194.2191
 Charge=              0.0000 electrons
 Dipole moment (field-independent basis, Debye):
    X=              0.0000    Y=              0.0000    Z=              7.9284  Tot=              7.9284
 Quadrupole moment (field-independent basis, Debye-Ang):
   XX=            -22.2806   YY=            -38.9742   ZZ=            -22.4884
   XY=              0.0000   XZ=              0.0000   YZ=              0.0000
 Traceless Quadrupole moment (field-independent basis, Debye-Ang):
   XX=              5.6337   YY=            -11.0598   ZZ=              5.4260
   XY=              0.0000   XZ=              0.0000   YZ=              0.0000
 Octapole moment (field-independent basis, Debye-Ang**2):
  XXX=              0.0000  YYY=              0.0000  ZZZ=             13.7676  XYY=              0.0000
  XXY=              0.0000  XXZ=              4.4675  XZZ=              0.0000  YZZ=              0.0000
  YYZ=              8.5740  XYZ=              0.0000
 Hexadecapole moment (field-independent basis, Debye-Ang**3):
 XXXX=            -19.6589 YYYY=           -196.3273 ZZZZ=            -44.9570 XXXY=              0.0000
 XXXZ=              0.0000 YYYX=              0.0000 YYYZ=              0.0000 ZZZX=              0.0000
 ZZZY=              0.0000 XXYY=            -32.8163 XXZZ=            -10.5447 YYZZ=            -39.3759
 XXYZ=              0.0000 YYXZ=              0.0000 ZZXY=              0.0000
 N-N= 1.270869725608D+02 E-N=-2.621480271681D+03  KE= 9.980101415642D+02
 Symmetry A1   KE= 7.288836757060D+02
 Symmetry A2   KE= 4.225746280053D+00
 Symmetry B1   KE= 9.718403065966D+01
 Symmetry B2   KE= 1.677166889186D+02
  Exact polarizability:  19.116   0.000  54.182   0.000   0.000  24.432
 Approx polarizability:  15.963   0.000  40.540   0.000   0.000  25.342
   4 Symmetry operations used in ECPInt.
 ECPInt:  NShTT=     703 NPrTT=    3029 LenC2=     698 LenP2D=    2553.
 LDataN:  DoStor=T MaxTD1= 8 Len=  415
 Calling FoFJK, ICntrl=  10100127 FMM=F ISym2X=1 I1Cent= 0 IOpClX= 0 NMat=1 NMatS=1 NMatT=0.
 ***** Axes restored to original set *****
 -------------------------------------------------------------------
 Center     Atomic                   Forces (Hartrees/Bohr)
 Number     Number              X              Y              Z
 -------------------------------------------------------------------
      1       22          -0.061875357    0.000000000   -0.040193009
      2        8           0.009181011    0.000000000    0.053589930
      3        8           0.052694346    0.000000000   -0.013396921
 -------------------------------------------------------------------
 Cartesian Forces:  Max     0.061875357 RMS     0.035522107
 -----------------------------------------------------------------------------------------------
                       Internal Coordinate Forces (Hartree/Bohr or radian)
  Cent   Atom   N1       Length/X         N2         Alpha/Y        N3         Beta/Z          J
 -----------------------------------------------------------------------------------------------
      1  Ti
      2  O        1   0.053590(     1)
      3  O        1   0.053590(     2)      2  -0.028186(     3)
 -----------------------------------------------------------------------------------------------
 Internal  Forces:  Max     0.053589930 RMS     0.046684051

 GradGradGradGradGradGradGradGradGradGradGradGradGradGradGradGradGradGrad
 Berny optimization.
 Search for a local minimum.
 Step number   1 out of a maximum of   20
 All quantities printed in internal units (Hartrees-Bohrs-Radians)
 Second derivative matrix not updated -- analytic derivatives used.
 The second derivative matrix:
                          R1        A1
           R1           1.09939
           A1          -0.05510   0.23151
 ITU=  0
     Eigenvalues ---    0.22803   1.10287
 RFO step:  Lambda=-1.25001793D-02 EMin= 2.28027698D-01
 Linear search not attempted -- first point.
 Variable       Old X    -DE/DX   Delta X   Delta X   Delta X     New X
                                 (Linear)    (Quad)   (Total)
    R1        3.07001   0.10718   0.00000   0.09170   0.09170   3.16171
    A1        1.98943  -0.02819   0.00000  -0.09480  -0.09480   1.89463
         Item               Value     Threshold  Converged?
 Maximum Force            0.107180     0.000450     NO 
 RMS     Force            0.078364     0.000300     NO 
 Maximum Displacement     0.094805     0.001800     NO 
 RMS     Displacement     0.093264     0.001200     NO 
 Predicted change in Energy=-6.358818D-03
 GradGradGradGradGradGradGradGradGradGradGradGradGradGradGradGradGradGrad

 ---------------------------------------------------------------------------------------------------
                            Z-MATRIX (ANGSTROMS AND DEGREES)
   CD    Cent   Atom    N1       Length/X        N2       Alpha/Y        N3        Beta/Z          J
 ---------------------------------------------------------------------------------------------------
      1      1  Ti
      2      2  O        1   1.673105(     1)
      3      3  O        1   1.673105(     2)      2  108.554(     3)
 ---------------------------------------------------------------------------------------------------
                         Z-Matrix orientation:                         
 ---------------------------------------------------------------------
 Center     Atomic      Atomic             Coordinates (Angstroms)
 Number     Number       Type             X           Y           Z
 ---------------------------------------------------------------------
      1         22           0        0.000000    0.000000    0.000000
      2          8           0        0.000000    0.000000    1.673105
      3          8           0        1.586142    0.000000   -0.532384
 ---------------------------------------------------------------------
                    Distance matrix (angstroms):
                    1          2          3
     1  Ti   0.000000
     2  O    1.673105   0.000000
     3  O    1.673105   2.716620   0.000000
 Stoichiometry    O2Ti
 Framework group  C2V[C2(Ti),SGV(O2)]
 Deg. of freedom     2
 Full point group                 C2V     NOp   4
 Largest Abelian subgroup         C2V     NOp   4
 Largest concise Abelian subgroup C2      NOp   2
                         Standard orientation:                         
 ---------------------------------------------------------------------
 Center     Atomic      Atomic             Coordinates (Angstroms)
 Number     Number       Type             X           Y           Z
 ---------------------------------------------------------------------
      1         22           0        0.000000    0.000000    0.411313
      2          8           0        0.000000    1.358310   -0.565556
      3          8           0        0.000000   -1.358310   -0.565556
 ---------------------------------------------------------------------
 Rotational constants (GHZ):          27.6003746           8.5626332           6.5351833
 Standard basis: def2TZVP (5D, 7F)
 There are    50 symmetry adapted cartesian basis functions of A1  symmetry.
 There are    16 symmetry adapted cartesian basis functions of A2  symmetry.
 There are    22 symmetry adapted cartesian basis functions of B1  symmetry.
 There are    36 symmetry adapted cartesian basis functions of B2  symmetry.
 There are    41 symmetry adapted basis functions of A1  symmetry.
 There are    15 symmetry adapted basis functions of A2  symmetry.
 There are    20 symmetry adapted basis functions of B1  symmetry.
 There are    31 symmetry adapted basis functions of B2  symmetry.
   107 basis functions,   204 primitive gaussians,   124 cartesian basis functions
    19 alpha electrons       19 beta electrons
       nuclear repulsion energy       123.7988954191 Hartrees.
 NAtoms=    3 NActive=    3 NUniq=    2 SFac= 2.25D+00 NAtFMM=   60 NAOKFM=F Big=F
 Integral buffers will be    131072 words long.
 Raffenetti 1 integral format.
 Two-electron integral symmetry is turned on.
 One-electron integrals computed using PRISM.
   4 Symmetry operations used in ECPInt.
 ECPInt:  NShTT=     703 NPrTT=    3029 LenC2=     698 LenP2D=    2551.
 LDataN:  DoStor=T MaxTD1= 6 Len=  172
 NBasis=   107 RedAO= T EigKep=  3.44D-03  NBF=    41    15    20    31
 NBsUse=   107 1.00D-06 EigRej= -1.00D+00 NBFU=    41    15    20    31
 Initial guess from the checkpoint file:  "TiO21aHigher1.chk"
 B after Tr=     0.000000    0.000000    0.000000
         Rot=    1.000000    0.000000    0.000000    0.000000 Ang=   0.00 deg.
 Initial guess orbital symmetries:
       Occupied  (A1) (A1) (A1) (B2) (A1) (B2) (B1) (A1) (B2) (A1)
                 (B1) (A1) (B2) (A1) (B2) (A2) (B1) (A1) (B2)
       Virtual   (A1) (B1) (A1) (B2) (A1) (A2) (A1) (B1) (A2) (A1)
                 (B1) (B2) (A1) (B2) (A1) (B2) (A1) (B1) (A2) (A1)
                 (B2) (A1) (B1) (B2) (A2) (A1) (B2) (A1) (B1) (A1)
                 (B2) (B1) (A1) (B2) (A2) (A1) (B1) (A2) (B2) (A1)
                 (B2) (B1) (A1) (A1) (A2) (B1) (B2) (A1) (B1) (B2)
                 (A1) (A2) (B2) (A1) (B1) (B2) (A2) (A1) (A1) (B2)
                 (A1) (B2) (A2) (B2) (B1) (A2) (A1) (B2) (A1) (B1)
                 (A1) (B1) (A2) (B2) (B2) (A1) (A2) (B2) (A1) (B1)
                 (B1) (B2) (A2) (A1) (A1) (B2) (A1) (B2)
 ExpMin= 3.27D-02 ExpMax= 2.12D+05 ExpMxC= 2.04D+03 IAcc=3 IRadAn=         5 AccDes= 0.00D+00
 Harris functional with IExCor=  205 and IRadAn=       5 diagonalized for initial guess.
 HarFok:  IExCor=  205 AccDes= 0.00D+00 IRadAn=         5 IDoV= 1 UseB2=F ITyADJ=14
 ICtDFT=  3500011 ScaDFX=  1.000000  1.000000  1.000000  1.000000
 FoFCou: FMM=F IPFlag=           0 FMFlag=      100000 FMFlg1=           0
         NFxFlg=           0 DoJE=T BraDBF=F KetDBF=T FulRan=T
         wScrn=  0.000000 ICntrl=       500 IOpCl=  0 I1Cent=   200000004 NGrid=           0
         NMat0=    1 NMatS0=      1 NMatT0=    0 NMatD0=    1 NMtDS0=    0 NMtDT0=    0
 Petite list used in FoFCou.
 Keep R1 ints in memory in symmetry-blocked form, NReq=20959436.
 Requested convergence on RMS density matrix=1.00D-08 within 128 cycles.
 Requested convergence on MAX density matrix=1.00D-06.
 Requested convergence on             energy=1.00D-06.
 No special actions if energy rises.
 SCF Done:  E(RHF) =  -998.157479142     A.U. after   15 cycles
            NFock= 15  Conv=0.50D-08     -V/T= 2.0005
 ExpMin= 3.27D-02 ExpMax= 2.12D+05 ExpMxC= 2.04D+03 IAcc=3 IRadAn=         5 AccDes= 0.00D+00
 HarFok:  IExCor=  205 AccDes= 0.00D+00 IRadAn=         5 IDoV=-2 UseB2=F ITyADJ=14
 ICtDFT= 12500011 ScaDFX=  1.000000  1.000000  1.000000  1.000000
 Range of M.O.s used for correlation:    12   107
 NBasis=   107 NAE=    19 NBE=    19 NFC=    11 NFV=     0
 NROrb=     96 NOA=     8 NOB=     8 NVA=    88 NVB=    88
 Fully direct method using O(ONN) memory.
 JobTyp=1 Pass  1:  I=  12 to  19 NPSUse=  2 ParTrn=T ParDer=T DoDerP=T.
 Spin components of T(2) and E(2):
     alpha-alpha T2 =       0.4386534779D-01 E2=     -0.1030994836D+00
     alpha-beta  T2 =       0.1893777247D+00 E2=     -0.4983130985D+00
     beta-beta   T2 =       0.4386534779D-01 E2=     -0.1030994836D+00
 ANorm=    0.1130092218D+01
 E2 =    -0.7045120657D+00 EUMP2 =    -0.99886199120755D+03
          IDoAtm=111
          Differentiating once with respect to electric field.
                with respect to dipole field.
          Differentiating once with respect to nuclear coordinates.
 Keep R1 ints in memory in symmetry-blocked form, NReq=20960211.
          There are     1 degrees of freedom in the 1st order CPHF.  IDoFFX=0 NUNeed=     1.
 LinEq1:  Iter=  0 NonCon=     1 RMS=1.49D-02 Max=2.48D-01 NDo=     1
 AX will form     1 AO Fock derivatives at one time.
 LinEq1:  Iter=  1 NonCon=     1 RMS=7.93D-03 Max=9.02D-02 NDo=     1
 LinEq1:  Iter=  2 NonCon=     1 RMS=3.90D-03 Max=5.35D-02 NDo=     1
 LinEq1:  Iter=  3 NonCon=     1 RMS=1.75D-03 Max=1.97D-02 NDo=     1
 LinEq1:  Iter=  4 NonCon=     1 RMS=4.30D-04 Max=5.17D-03 NDo=     1
 LinEq1:  Iter=  5 NonCon=     1 RMS=1.28D-04 Max=1.83D-03 NDo=     1
 LinEq1:  Iter=  6 NonCon=     1 RMS=4.29D-05 Max=5.11D-04 NDo=     1
 LinEq1:  Iter=  7 NonCon=     1 RMS=1.21D-05 Max=1.53D-04 NDo=     1
 LinEq1:  Iter=  8 NonCon=     1 RMS=2.63D-06 Max=3.55D-05 NDo=     1
 LinEq1:  Iter=  9 NonCon=     1 RMS=6.35D-07 Max=8.93D-06 NDo=     1
 LinEq1:  Iter= 10 NonCon=     1 RMS=1.49D-07 Max=2.15D-06 NDo=     1
 LinEq1:  Iter= 11 NonCon=     1 RMS=3.09D-08 Max=3.95D-07 NDo=     1
 LinEq1:  Iter= 12 NonCon=     1 RMS=5.95D-09 Max=7.70D-08 NDo=     1
 LinEq1:  Iter= 13 NonCon=     1 RMS=1.20D-09 Max=1.87D-08 NDo=     1
 LinEq1:  Iter= 14 NonCon=     1 RMS=3.06D-10 Max=4.36D-09 NDo=     1
 LinEq1:  Iter= 15 NonCon=     0 RMS=6.06D-11 Max=8.82D-10 NDo=     1
 Linear equations converged to 1.000D-10 1.000D-09 after    15 iterations.
 End of Minotr F.D. properties file   721 does not exist.
 End of Minotr F.D. properties file   722 does not exist.
 End of Minotr F.D. properties file   788 does not exist.
   4 Symmetry operations used in ECPInt.
 ECPInt:  NShTT=     703 NPrTT=    3029 LenC2=     698 LenP2D=    2551.
 LDataN:  DoStor=T MaxTD1= 7 Len=  274
 Calling FoFJK, ICntrl=  10002127 FMM=F ISym2X=1 I1Cent= 0 IOpClX= 0 NMat=1 NMatS=1 NMatT=0.
 ***** Axes restored to original set *****
 -------------------------------------------------------------------
 Center     Atomic                   Forces (Hartrees/Bohr)
 Number     Number              X              Y              Z
 -------------------------------------------------------------------
      1       22          -0.008651901    0.000000000   -0.006222269
      2        8           0.000854760    0.000000000    0.007937734
      3        8           0.007797141    0.000000000   -0.001715465
 -------------------------------------------------------------------
 Cartesian Forces:  Max     0.008651901 RMS     0.005175245
 -----------------------------------------------------------------------------------------------
                       Internal Coordinate Forces (Hartree/Bohr or radian)
  Cent   Atom   N1       Length/X         N2         Alpha/Y        N3         Beta/Z          J
 -----------------------------------------------------------------------------------------------
      1  Ti
      2  O        1   0.007938(     1)
      3  O        1   0.007938(     2)      2  -0.002703(     3)
 -----------------------------------------------------------------------------------------------
 Internal  Forces:  Max     0.007937734 RMS     0.006666302

 GradGradGradGradGradGradGradGradGradGradGradGradGradGradGradGradGradGrad
 Berny optimization.
 Search for a local minimum.
 Step number   2 out of a maximum of   20
 All quantities printed in internal units (Hartrees-Bohrs-Radians)
 Update second derivatives using D2CorN and points    1    2
 DE= -6.87D-03 DEPred=-6.36D-03 R= 1.08D+00
 TightC=F SS=  1.41D+00  RLast= 1.32D-01 DXNew= 5.0454D-01 3.9568D-01
 Trust test= 1.08D+00 RLast= 1.32D-01 DXMaxT set to 3.96D-01
 The second derivative matrix:
                          R1        A1
           R1           1.02175
           A1          -0.01096   0.22324
 ITU=  1  0
     Eigenvalues ---    0.22309   1.02190
 RFO step:  Lambda=-8.14446726D-07 EMin= 2.23091665D-01
 Quartic linear search produced a step of  0.18753.
 Variable       Old X    -DE/DX   Delta X   Delta X   Delta X     New X
                                 (Linear)    (Quad)   (Total)
    R1        3.16171   0.01588   0.01720   0.00040   0.01760   3.17931
    A1        1.89463  -0.00270  -0.01778   0.00172  -0.01606   1.87857
         Item               Value     Threshold  Converged?
 Maximum Force            0.015875     0.000450     NO 
 RMS     Force            0.011387     0.000300     NO 
 Maximum Displacement     0.017600     0.001800     NO 
 RMS     Displacement     0.016845     0.001200     NO 
 Predicted change in Energy=-1.326795D-04
 GradGradGradGradGradGradGradGradGradGradGradGradGradGradGradGradGradGrad

 ---------------------------------------------------------------------------------------------------
                            Z-MATRIX (ANGSTROMS AND DEGREES)
   CD    Cent   Atom    N1       Length/X        N2       Alpha/Y        N3        Beta/Z          J
 ---------------------------------------------------------------------------------------------------
      1      1  Ti
      2      2  O        1   1.682418(     1)
      3      3  O        1   1.682418(     2)      2  107.634(     3)
 ---------------------------------------------------------------------------------------------------
                         Z-Matrix orientation:                         
 ---------------------------------------------------------------------
 Center     Atomic      Atomic             Coordinates (Angstroms)
 Number     Number       Type             X           Y           Z
 ---------------------------------------------------------------------
      1         22           0        0.000000    0.000000    0.000000
      2          8           0        0.000000    0.000000    1.682418
      3          8           0        1.603360    0.000000   -0.509672
 ---------------------------------------------------------------------
                    Distance matrix (angstroms):
                    1          2          3
     1  Ti   0.000000
     2  O    1.682418   0.000000
     3  O    1.682418   2.715884   0.000000
 Stoichiometry    O2Ti
 Framework group  C2V[C2(Ti),SGV(O2)]
 Deg. of freedom     2
 Full point group                 C2V     NOp   4
 Largest Abelian subgroup         C2V     NOp   4
 Largest concise Abelian subgroup C2      NOp   2
                         Standard orientation:                         
 ---------------------------------------------------------------------
 Center     Atomic      Atomic             Coordinates (Angstroms)
 Number     Number       Type             X           Y           Z
 ---------------------------------------------------------------------
      1         22           0        0.000000    0.000000    0.418206
      2          8           0        0.000000    1.357942   -0.575033
      3          8           0        0.000000   -1.357942   -0.575033
 ---------------------------------------------------------------------
 Rotational constants (GHZ):          26.6980514           8.5672806           6.4859647
 Standard basis: def2TZVP (5D, 7F)
 There are    50 symmetry adapted cartesian basis functions of A1  symmetry.
 There are    16 symmetry adapted cartesian basis functions of A2  symmetry.
 There are    22 symmetry adapted cartesian basis functions of B1  symmetry.
 There are    36 symmetry adapted cartesian basis functions of B2  symmetry.
 There are    41 symmetry adapted basis functions of A1  symmetry.
 There are    15 symmetry adapted basis functions of A2  symmetry.
 There are    20 symmetry adapted basis functions of B1  symmetry.
 There are    31 symmetry adapted basis functions of B2  symmetry.
   107 basis functions,   204 primitive gaussians,   124 cartesian basis functions
    19 alpha electrons       19 beta electrons
       nuclear repulsion energy       123.1859796043 Hartrees.
 NAtoms=    3 NActive=    3 NUniq=    2 SFac= 2.25D+00 NAtFMM=   60 NAOKFM=F Big=F
 Integral buffers will be    131072 words long.
 Raffenetti 1 integral format.
 Two-electron integral symmetry is turned on.
 One-electron integrals computed using PRISM.
   4 Symmetry operations used in ECPInt.
 ECPInt:  NShTT=     703 NPrTT=    3029 LenC2=     698 LenP2D=    2551.
 LDataN:  DoStor=T MaxTD1= 6 Len=  172
 NBasis=   107 RedAO= T EigKep=  3.45D-03  NBF=    41    15    20    31
 NBsUse=   107 1.00D-06 EigRej= -1.00D+00 NBFU=    41    15    20    31
 Initial guess from the checkpoint file:  "TiO21aHigher1.chk"
 B after Tr=     0.000000    0.000000    0.000000
         Rot=    1.000000    0.000000    0.000000    0.000000 Ang=   0.00 deg.
 Initial guess orbital symmetries:
       Occupied  (A1) (A1) (A1) (B2) (A1) (B2) (B1) (A1) (B2) (A1)
                 (B1) (A1) (B2) (A1) (B2) (A2) (A1) (B1) (B2)
       Virtual   (A1) (B1) (A1) (B2) (A1) (A2) (B1) (A1) (A2) (A1)
                 (B2) (B1) (A1) (B2) (A1) (B2) (A1) (B1) (A2) (A1)
                 (B2) (A1) (B1) (B2) (A2) (A1) (B2) (A1) (B1) (A1)
                 (B2) (B1) (B2) (A1) (A2) (A1) (B1) (A2) (B2) (A1)
                 (B2) (B1) (A1) (A1) (A2) (B1) (B2) (A1) (B2) (B1)
                 (A1) (A2) (B2) (A1) (B1) (B2) (A2) (A1) (A1) (B2)
                 (A1) (B2) (A2) (B2) (A2) (B1) (A1) (B2) (A1) (B1)
                 (B1) (A1) (B2) (A2) (A1) (B2) (A2) (B2) (A1) (B1)
                 (B2) (B1) (A2) (A1) (A1) (B2) (A1) (B2)
 Keep R1 ints in memory in symmetry-blocked form, NReq=20959436.
 Requested convergence on RMS density matrix=1.00D-08 within 128 cycles.
 Requested convergence on MAX density matrix=1.00D-06.
 Requested convergence on             energy=1.00D-06.
 No special actions if energy rises.
 SCF Done:  E(RHF) =  -998.154021811     A.U. after   13 cycles
            NFock= 13  Conv=0.49D-08     -V/T= 2.0006
 ExpMin= 3.27D-02 ExpMax= 2.12D+05 ExpMxC= 2.04D+03 IAcc=3 IRadAn=         5 AccDes= 0.00D+00
 HarFok:  IExCor=  205 AccDes= 0.00D+00 IRadAn=         5 IDoV=-2 UseB2=F ITyADJ=14
 ICtDFT= 12500011 ScaDFX=  1.000000  1.000000  1.000000  1.000000
 Range of M.O.s used for correlation:    12   107
 NBasis=   107 NAE=    19 NBE=    19 NFC=    11 NFV=     0
 NROrb=     96 NOA=     8 NOB=     8 NVA=    88 NVB=    88
 Fully direct method using O(ONN) memory.
 JobTyp=1 Pass  1:  I=  12 to  19 NPSUse=  2 ParTrn=T ParDer=T DoDerP=T.
 Spin components of T(2) and E(2):
     alpha-alpha T2 =       0.4458681005D-01 E2=     -0.1036714219D+00
     alpha-beta  T2 =       0.1923159003D+00 E2=     -0.5007885085D+00
     beta-beta   T2 =       0.4458681005D-01 E2=     -0.1036714219D+00
 ANorm=    0.1132028940D+01
 E2 =    -0.7081313523D+00 EUMP2 =    -0.99886215316347D+03
          IDoAtm=111
          Differentiating once with respect to electric field.
                with respect to dipole field.
          Differentiating once with respect to nuclear coordinates.
 Keep R1 ints in memory in symmetry-blocked form, NReq=20960211.
          There are     1 degrees of freedom in the 1st order CPHF.  IDoFFX=0 NUNeed=     1.
 LinEq1:  Iter=  0 NonCon=     1 RMS=1.52D-02 Max=2.55D-01 NDo=     1
 AX will form     1 AO Fock derivatives at one time.
 LinEq1:  Iter=  1 NonCon=     1 RMS=8.18D-03 Max=9.30D-02 NDo=     1
 LinEq1:  Iter=  2 NonCon=     1 RMS=4.06D-03 Max=5.57D-02 NDo=     1
 LinEq1:  Iter=  3 NonCon=     1 RMS=1.83D-03 Max=2.10D-02 NDo=     1
 LinEq1:  Iter=  4 NonCon=     1 RMS=4.60D-04 Max=5.47D-03 NDo=     1
 LinEq1:  Iter=  5 NonCon=     1 RMS=1.38D-04 Max=2.07D-03 NDo=     1
 LinEq1:  Iter=  6 NonCon=     1 RMS=4.62D-05 Max=5.68D-04 NDo=     1
 LinEq1:  Iter=  7 NonCon=     1 RMS=1.32D-05 Max=1.68D-04 NDo=     1
 LinEq1:  Iter=  8 NonCon=     1 RMS=2.91D-06 Max=3.91D-05 NDo=     1
 LinEq1:  Iter=  9 NonCon=     1 RMS=7.00D-07 Max=9.54D-06 NDo=     1
 LinEq1:  Iter= 10 NonCon=     1 RMS=1.62D-07 Max=2.38D-06 NDo=     1
 LinEq1:  Iter= 11 NonCon=     1 RMS=3.38D-08 Max=4.30D-07 NDo=     1
 LinEq1:  Iter= 12 NonCon=     1 RMS=6.56D-09 Max=8.70D-08 NDo=     1
 LinEq1:  Iter= 13 NonCon=     1 RMS=1.34D-09 Max=2.11D-08 NDo=     1
 LinEq1:  Iter= 14 NonCon=     1 RMS=3.42D-10 Max=4.83D-09 NDo=     1
 LinEq1:  Iter= 15 NonCon=     0 RMS=6.70D-11 Max=9.68D-10 NDo=     1
 Linear equations converged to 1.000D-10 1.000D-09 after    15 iterations.
 End of Minotr F.D. properties file   721 does not exist.
 End of Minotr F.D. properties file   722 does not exist.
 End of Minotr F.D. properties file   788 does not exist.
   4 Symmetry operations used in ECPInt.
 ECPInt:  NShTT=     703 NPrTT=    3029 LenC2=     698 LenP2D=    2551.
 LDataN:  DoStor=T MaxTD1= 7 Len=  274
 Calling FoFJK, ICntrl=  10002127 FMM=F ISym2X=1 I1Cent= 0 IOpClX= 0 NMat=1 NMatS=1 NMatT=0.
 ***** Axes restored to original set *****
 -------------------------------------------------------------------
 Center     Atomic                   Forces (Hartrees/Bohr)
 Number     Number              X              Y              Z
 -------------------------------------------------------------------
      1       22          -0.000141785    0.000000000   -0.000103706
      2        8          -0.000431437    0.000000000    0.000738630
      3        8           0.000573222    0.000000000   -0.000634925
 -------------------------------------------------------------------
 Cartesian Forces:  Max     0.000738630 RMS     0.000407470
 -----------------------------------------------------------------------------------------------
                       Internal Coordinate Forces (Hartree/Bohr or radian)
  Cent   Atom   N1       Length/X         N2         Alpha/Y        N3         Beta/Z          J
 -----------------------------------------------------------------------------------------------
      1  Ti
      2  O        1   0.000739(     1)
      3  O        1   0.000739(     2)      2   0.001372(     3)
 -----------------------------------------------------------------------------------------------
 Internal  Forces:  Max     0.001371673 RMS     0.000995429

 GradGradGradGradGradGradGradGradGradGradGradGradGradGradGradGradGradGrad
 Berny optimization.
 Search for a local minimum.
 Step number   3 out of a maximum of   20
 All quantities printed in internal units (Hartrees-Bohrs-Radians)
 Update second derivatives using D2CorN and points    1    2    3
 DE= -1.62D-04 DEPred=-1.33D-04 R= 1.22D+00
 TightC=F SS=  1.41D+00  RLast= 2.38D-02 DXNew= 6.6546D-01 7.1468D-02
 Trust test= 1.22D+00 RLast= 2.38D-02 DXMaxT set to 3.96D-01
 The second derivative matrix:
                          R1        A1
           R1           0.89455
           A1           0.03781   0.24479
 ITU=  1  1  0
     Eigenvalues ---    0.24260   0.89674
 RFO step:  Lambda=-9.55063088D-06 EMin= 2.42595848D-01
 Quartic linear search produced a step of  0.01282.
 Variable       Old X    -DE/DX   Delta X   Delta X   Delta X     New X
                                 (Linear)    (Quad)   (Total)
    R1        3.17931   0.00148   0.00023   0.00121   0.00144   3.18075
    A1        1.87857   0.00137  -0.00021   0.00562   0.00541   1.88398
         Item               Value     Threshold  Converged?
 Maximum Force            0.001477     0.000450     NO 
 RMS     Force            0.001425     0.000300     NO 
 Maximum Displacement     0.005411     0.001800     NO 
 RMS     Displacement     0.003959     0.001200     NO 
 Predicted change in Energy=-4.743774D-06
 GradGradGradGradGradGradGradGradGradGradGradGradGradGradGradGradGradGrad

 ---------------------------------------------------------------------------------------------------
                            Z-MATRIX (ANGSTROMS AND DEGREES)
   CD    Cent   Atom    N1       Length/X        N2       Alpha/Y        N3        Beta/Z          J
 ---------------------------------------------------------------------------------------------------
      1      1  Ti
      2      2  O        1   1.683178(     1)
      3      3  O        1   1.683178(     2)      2  107.944(     3)
 ---------------------------------------------------------------------------------------------------
                         Z-Matrix orientation:                         
 ---------------------------------------------------------------------
 Center     Atomic      Atomic             Coordinates (Angstroms)
 Number     Number       Type             X           Y           Z
 ---------------------------------------------------------------------
      1         22           0        0.000000    0.000000    0.000000
      2          8           0        0.000000    0.000000    1.683178
      3          8           0        1.601303    0.000000   -0.518575
 ---------------------------------------------------------------------
                    Distance matrix (angstroms):
                    1          2          3
     1  Ti   0.000000
     2  O    1.683178   0.000000
     3  O    1.683178   2.722478   0.000000
 Stoichiometry    O2Ti
 Framework group  C2V[C2(Ti),SGV(O2)]
 Deg. of freedom     2
 Full point group                 C2V     NOp   4
 Largest Abelian subgroup         C2V     NOp   4
 Largest concise Abelian subgroup C2      NOp   2
                         Standard orientation:                         
 ---------------------------------------------------------------------
 Center     Atomic      Atomic             Coordinates (Angstroms)
 Number     Number       Type             X           Y           Z
 ---------------------------------------------------------------------
      1         22           0        0.000000    0.000000    0.416846
      2          8           0        0.000000    1.361239   -0.573163
      3          8           0        0.000000   -1.361239   -0.573163
 ---------------------------------------------------------------------
 Rotational constants (GHZ):          26.8725549           8.5258272           6.4723512
 Standard basis: def2TZVP (5D, 7F)
 There are    50 symmetry adapted cartesian basis functions of A1  symmetry.
 There are    16 symmetry adapted cartesian basis functions of A2  symmetry.
 There are    22 symmetry adapted cartesian basis functions of B1  symmetry.
 There are    36 symmetry adapted cartesian basis functions of B2  symmetry.
 There are    41 symmetry adapted basis functions of A1  symmetry.
 There are    15 symmetry adapted basis functions of A2  symmetry.
 There are    20 symmetry adapted basis functions of B1  symmetry.
 There are    31 symmetry adapted basis functions of B2  symmetry.
   107 basis functions,   204 primitive gaussians,   124 cartesian basis functions
    19 alpha electrons       19 beta electrons
       nuclear repulsion energy       123.1057509312 Hartrees.
 NAtoms=    3 NActive=    3 NUniq=    2 SFac= 2.25D+00 NAtFMM=   60 NAOKFM=F Big=F
 Integral buffers will be    131072 words long.
 Raffenetti 1 integral format.
 Two-electron integral symmetry is turned on.
 One-electron integrals computed using PRISM.
   4 Symmetry operations used in ECPInt.
 ECPInt:  NShTT=     703 NPrTT=    3029 LenC2=     698 LenP2D=    2551.
 LDataN:  DoStor=T MaxTD1= 6 Len=  172
 NBasis=   107 RedAO= T EigKep=  3.46D-03  NBF=    41    15    20    31
 NBsUse=   107 1.00D-06 EigRej= -1.00D+00 NBFU=    41    15    20    31
 Initial guess from the checkpoint file:  "TiO21aHigher1.chk"
 B after Tr=     0.000000    0.000000    0.000000
         Rot=    1.000000    0.000000    0.000000    0.000000 Ang=   0.00 deg.
 Initial guess orbital symmetries:
       Occupied  (A1) (A1) (A1) (B2) (A1) (B2) (B1) (A1) (B2) (A1)
                 (B1) (A1) (B2) (A1) (B2) (A2) (A1) (B1) (B2)
       Virtual   (A1) (B1) (A1) (B2) (A1) (A2) (B1) (A1) (A2) (A1)
                 (B2) (B1) (A1) (B2) (A1) (B2) (A1) (B1) (A2) (A1)
                 (B2) (A1) (B1) (B2) (A2) (A1) (B2) (A1) (B1) (A1)
                 (B2) (B1) (B2) (A2) (A1) (A1) (B1) (A2) (B2) (A1)
                 (B2) (B1) (A1) (A1) (A2) (B1) (B2) (A1) (B2) (B1)
                 (A2) (A1) (B2) (A1) (B1) (B2) (A2) (A1) (A1) (B2)
                 (A1) (B2) (A2) (B2) (A2) (B1) (A1) (B2) (A1) (B1)
                 (B1) (A1) (B2) (A2) (A1) (B2) (A2) (A1) (B2) (B1)
                 (B2) (B1) (A2) (A1) (A1) (B2) (A1) (B2)
 Keep R1 ints in memory in symmetry-blocked form, NReq=20959436.
 Requested convergence on RMS density matrix=1.00D-08 within 128 cycles.
 Requested convergence on MAX density matrix=1.00D-06.
 Requested convergence on             energy=1.00D-06.
 No special actions if energy rises.
 SCF Done:  E(RHF) =  -998.154112547     A.U. after   12 cycles
            NFock= 12  Conv=0.85D-08     -V/T= 2.0006
 ExpMin= 3.27D-02 ExpMax= 2.12D+05 ExpMxC= 2.04D+03 IAcc=3 IRadAn=         5 AccDes= 0.00D+00
 HarFok:  IExCor=  205 AccDes= 0.00D+00 IRadAn=         5 IDoV=-2 UseB2=F ITyADJ=14
 ICtDFT= 12500011 ScaDFX=  1.000000  1.000000  1.000000  1.000000
 Range of M.O.s used for correlation:    12   107
 NBasis=   107 NAE=    19 NBE=    19 NFC=    11 NFV=     0
 NROrb=     96 NOA=     8 NOB=     8 NVA=    88 NVB=    88
 Fully direct method using O(ONN) memory.
 JobTyp=1 Pass  1:  I=  12 to  19 NPSUse=  2 ParTrn=T ParDer=T DoDerP=T.
 Spin components of T(2) and E(2):
     alpha-alpha T2 =       0.4458732536D-01 E2=     -0.1036488261D+00
     alpha-beta  T2 =       0.1923366815D+00 E2=     -0.5007482907D+00
     beta-beta   T2 =       0.4458732536D-01 E2=     -0.1036488261D+00
 ANorm=    0.1132038574D+01
 E2 =    -0.7080459428D+00 EUMP2 =    -0.99886215849014D+03
          IDoAtm=111
          Differentiating once with respect to electric field.
                with respect to dipole field.
          Differentiating once with respect to nuclear coordinates.
 Keep R1 ints in memory in symmetry-blocked form, NReq=20960211.
          There are     1 degrees of freedom in the 1st order CPHF.  IDoFFX=0 NUNeed=     1.
 LinEq1:  Iter=  0 NonCon=     1 RMS=1.52D-02 Max=2.55D-01 NDo=     1
 AX will form     1 AO Fock derivatives at one time.
 LinEq1:  Iter=  1 NonCon=     1 RMS=8.18D-03 Max=9.28D-02 NDo=     1
 LinEq1:  Iter=  2 NonCon=     1 RMS=4.06D-03 Max=5.55D-02 NDo=     1
 LinEq1:  Iter=  3 NonCon=     1 RMS=1.83D-03 Max=2.10D-02 NDo=     1
 LinEq1:  Iter=  4 NonCon=     1 RMS=4.60D-04 Max=5.47D-03 NDo=     1
 LinEq1:  Iter=  5 NonCon=     1 RMS=1.37D-04 Max=2.05D-03 NDo=     1
 LinEq1:  Iter=  6 NonCon=     1 RMS=4.60D-05 Max=5.67D-04 NDo=     1
 LinEq1:  Iter=  7 NonCon=     1 RMS=1.31D-05 Max=1.69D-04 NDo=     1
 LinEq1:  Iter=  8 NonCon=     1 RMS=2.91D-06 Max=3.91D-05 NDo=     1
 LinEq1:  Iter=  9 NonCon=     1 RMS=6.98D-07 Max=9.50D-06 NDo=     1
 LinEq1:  Iter= 10 NonCon=     1 RMS=1.62D-07 Max=2.37D-06 NDo=     1
 LinEq1:  Iter= 11 NonCon=     1 RMS=3.38D-08 Max=4.30D-07 NDo=     1
 LinEq1:  Iter= 12 NonCon=     1 RMS=6.54D-09 Max=8.68D-08 NDo=     1
 LinEq1:  Iter= 13 NonCon=     1 RMS=1.33D-09 Max=2.10D-08 NDo=     1
 LinEq1:  Iter= 14 NonCon=     1 RMS=3.41D-10 Max=4.81D-09 NDo=     1
 LinEq1:  Iter= 15 NonCon=     0 RMS=6.69D-11 Max=9.70D-10 NDo=     1
 Linear equations converged to 1.000D-10 1.000D-09 after    15 iterations.
 End of Minotr F.D. properties file   721 does not exist.
 End of Minotr F.D. properties file   722 does not exist.
 End of Minotr F.D. properties file   788 does not exist.
   4 Symmetry operations used in ECPInt.
 ECPInt:  NShTT=     703 NPrTT=    3029 LenC2=     698 LenP2D=    2551.
 LDataN:  DoStor=T MaxTD1= 7 Len=  274
 Calling FoFJK, ICntrl=  10002127 FMM=F ISym2X=1 I1Cent= 0 IOpClX= 0 NMat=1 NMatS=1 NMatT=0.
 ***** Axes restored to original set *****
 -------------------------------------------------------------------
 Center     Atomic                   Forces (Hartrees/Bohr)
 Number     Number              X              Y              Z
 -------------------------------------------------------------------
      1       22          -0.000156631    0.000000000   -0.000113916
      2        8          -0.000031633    0.000000000    0.000208134
      3        8           0.000188264    0.000000000   -0.000094219
 -------------------------------------------------------------------
 Cartesian Forces:  Max     0.000208134 RMS     0.000118393
 -----------------------------------------------------------------------------------------------
                       Internal Coordinate Forces (Hartree/Bohr or radian)
  Cent   Atom   N1       Length/X         N2         Alpha/Y        N3         Beta/Z          J
 -----------------------------------------------------------------------------------------------
      1  Ti
      2  O        1   0.000208(     1)
      3  O        1   0.000208(     2)      2   0.000101(     3)
 -----------------------------------------------------------------------------------------------
 Internal  Forces:  Max     0.000208134 RMS     0.000179595

 GradGradGradGradGradGradGradGradGradGradGradGradGradGradGradGradGradGrad
 Berny optimization.
 Search for a local minimum.
 Step number   4 out of a maximum of   20
 All quantities printed in internal units (Hartrees-Bohrs-Radians)
 Update second derivatives using D2CorN and points    2    3    4
 DE= -5.33D-06 DEPred=-4.74D-06 R= 1.12D+00
 TightC=F SS=  1.41D+00  RLast= 5.60D-03 DXNew= 6.6546D-01 1.6795D-02
 Trust test= 1.12D+00 RLast= 5.60D-03 DXMaxT set to 3.96D-01
 The second derivative matrix:
                          R1        A1
           R1           0.83254
           A1          -0.00110   0.22884
 ITU=  1  1  1
     Eigenvalues ---    0.22884   0.83254
 RFO step:  Lambda=-1.10371820D-07 EMin= 2.28840452D-01
 Quartic linear search produced a step of  0.13791.
 Variable       Old X    -DE/DX   Delta X   Delta X   Delta X     New X
                                 (Linear)    (Quad)   (Total)
    R1        3.18075   0.00042   0.00020   0.00032   0.00052   3.18127
    A1        1.88398   0.00010   0.00075  -0.00031   0.00043   1.88442
         Item               Value     Threshold  Converged?
 Maximum Force            0.000416     0.000450     YES
 RMS     Force            0.000303     0.000300     NO 
 Maximum Displacement     0.000523     0.001800     YES
 RMS     Displacement     0.000480     0.001200     YES
 Predicted change in Energy=-1.262136D-07
 GradGradGradGradGradGradGradGradGradGradGradGradGradGradGradGradGradGrad

 ---------------------------------------------------------------------------------------------------
                            Z-MATRIX (ANGSTROMS AND DEGREES)
   CD    Cent   Atom    N1       Length/X        N2       Alpha/Y        N3        Beta/Z          J
 ---------------------------------------------------------------------------------------------------
      1      1  Ti
      2      2  O        1   1.683455(     1)
      3      3  O        1   1.683455(     2)      2  107.969(     3)
 ---------------------------------------------------------------------------------------------------
                         Z-Matrix orientation:                         
 ---------------------------------------------------------------------
 Center     Atomic      Atomic             Coordinates (Angstroms)
 Number     Number       Type             X           Y           Z
 ---------------------------------------------------------------------
      1         22           0        0.000000    0.000000    0.000000
      2          8           0        0.000000    0.000000    1.683455
      3          8           0        1.601341    0.000000   -0.519354
 ---------------------------------------------------------------------
                    Distance matrix (angstroms):
                    1          2          3
     1  Ti   0.000000
     2  O    1.683455   0.000000
     3  O    1.683455   2.723355   0.000000
 Stoichiometry    O2Ti
 Framework group  C2V[C2(Ti),SGV(O2)]
 Deg. of freedom     2
 Full point group                 C2V     NOp   4
 Largest Abelian subgroup         C2V     NOp   4
 Largest concise Abelian subgroup C2      NOp   2
                         Standard orientation:                         
 ---------------------------------------------------------------------
 Center     Atomic      Atomic             Coordinates (Angstroms)
 Number     Number       Type             X           Y           Z
 ---------------------------------------------------------------------
      1         22           0        0.000000    0.000000    0.416790
      2          8           0        0.000000    1.361677   -0.573086
      3          8           0        0.000000   -1.361677   -0.573086
 ---------------------------------------------------------------------
 Rotational constants (GHZ):          26.8797462           8.5203378           6.4696038
 Standard basis: def2TZVP (5D, 7F)
 There are    50 symmetry adapted cartesian basis functions of A1  symmetry.
 There are    16 symmetry adapted cartesian basis functions of A2  symmetry.
 There are    22 symmetry adapted cartesian basis functions of B1  symmetry.
 There are    36 symmetry adapted cartesian basis functions of B2  symmetry.
 There are    41 symmetry adapted basis functions of A1  symmetry.
 There are    15 symmetry adapted basis functions of A2  symmetry.
 There are    20 symmetry adapted basis functions of B1  symmetry.
 There are    31 symmetry adapted basis functions of B2  symmetry.
   107 basis functions,   204 primitive gaussians,   124 cartesian basis functions
    19 alpha electrons       19 beta electrons
       nuclear repulsion energy       123.0835551267 Hartrees.
 NAtoms=    3 NActive=    3 NUniq=    2 SFac= 2.25D+00 NAtFMM=   60 NAOKFM=F Big=F
 Integral buffers will be    131072 words long.
 Raffenetti 1 integral format.
 Two-electron integral symmetry is turned on.
 One-electron integrals computed using PRISM.
   4 Symmetry operations used in ECPInt.
 ECPInt:  NShTT=     703 NPrTT=    3029 LenC2=     698 LenP2D=    2551.
 LDataN:  DoStor=T MaxTD1= 6 Len=  172
 NBasis=   107 RedAO= T EigKep=  3.46D-03  NBF=    41    15    20    31
 NBsUse=   107 1.00D-06 EigRej= -1.00D+00 NBFU=    41    15    20    31
 Initial guess from the checkpoint file:  "TiO21aHigher1.chk"
 B after Tr=     0.000000    0.000000    0.000000
         Rot=    1.000000    0.000000    0.000000    0.000000 Ang=   0.00 deg.
 Initial guess orbital symmetries:
       Occupied  (A1) (A1) (A1) (B2) (A1) (B1) (B2) (A1) (B2) (A1)
                 (B1) (A1) (B2) (A1) (B2) (A2) (A1) (B1) (B2)
       Virtual   (A1) (B1) (A1) (B2) (A1) (A2) (B1) (A1) (A2) (A1)
                 (B2) (B1) (A1) (B2) (A1) (B2) (A1) (B1) (A2) (A1)
                 (B2) (A1) (B1) (B2) (A2) (A1) (B2) (A1) (B1) (A1)
                 (B2) (B1) (B2) (A2) (A1) (A1) (B1) (A2) (B2) (A1)
                 (B2) (B1) (A1) (A1) (A2) (B1) (B2) (A1) (B2) (B1)
                 (A2) (A1) (B2) (A1) (B1) (B2) (A2) (A1) (A1) (B2)
                 (A1) (B2) (A2) (B2) (A2) (B1) (A1) (B2) (A1) (B1)
                 (B1) (A1) (B2) (A2) (A1) (B2) (A2) (A1) (B2) (B1)
                 (B2) (B1) (A2) (A1) (A1) (B2) (A1) (B2)
 Keep R1 ints in memory in symmetry-blocked form, NReq=20959436.
 Requested convergence on RMS density matrix=1.00D-08 within 128 cycles.
 Requested convergence on MAX density matrix=1.00D-06.
 Requested convergence on             energy=1.00D-06.
 No special actions if energy rises.
 SCF Done:  E(RHF) =  -998.154056067     A.U. after   10 cycles
            NFock= 10  Conv=0.79D-08     -V/T= 2.0006
 ExpMin= 3.27D-02 ExpMax= 2.12D+05 ExpMxC= 2.04D+03 IAcc=3 IRadAn=         5 AccDes= 0.00D+00
 HarFok:  IExCor=  205 AccDes= 0.00D+00 IRadAn=         5 IDoV=-2 UseB2=F ITyADJ=14
 ICtDFT= 12500011 ScaDFX=  1.000000  1.000000  1.000000  1.000000
 Range of M.O.s used for correlation:    12   107
 NBasis=   107 NAE=    19 NBE=    19 NFC=    11 NFV=     0
 NROrb=     96 NOA=     8 NOB=     8 NVA=    88 NVB=    88
 Fully direct method using O(ONN) memory.
 JobTyp=1 Pass  1:  I=  12 to  19 NPSUse=  2 ParTrn=T ParDer=T DoDerP=T.
 Spin components of T(2) and E(2):
     alpha-alpha T2 =       0.4460104199D-01 E2=     -0.1036565598D+00
     alpha-beta  T2 =       0.1923950760D+00 E2=     -0.5007894477D+00
     beta-beta   T2 =       0.4460104199D-01 E2=     -0.1036565598D+00
 ANorm=    0.1132076481D+01
 E2 =    -0.7081025672D+00 EUMP2 =    -0.99886215863424D+03
          IDoAtm=111
          Differentiating once with respect to electric field.
                with respect to dipole field.
          Differentiating once with respect to nuclear coordinates.
 Keep R1 ints in memory in symmetry-blocked form, NReq=20960211.
          There are     1 degrees of freedom in the 1st order CPHF.  IDoFFX=0 NUNeed=     1.
 LinEq1:  Iter=  0 NonCon=     1 RMS=1.52D-02 Max=2.55D-01 NDo=     1
 AX will form     1 AO Fock derivatives at one time.
 LinEq1:  Iter=  1 NonCon=     1 RMS=8.18D-03 Max=9.28D-02 NDo=     1
 LinEq1:  Iter=  2 NonCon=     1 RMS=4.06D-03 Max=5.55D-02 NDo=     1
 LinEq1:  Iter=  3 NonCon=     1 RMS=1.83D-03 Max=2.10D-02 NDo=     1
 LinEq1:  Iter=  4 NonCon=     1 RMS=4.60D-04 Max=5.48D-03 NDo=     1
 LinEq1:  Iter=  5 NonCon=     1 RMS=1.38D-04 Max=2.05D-03 NDo=     1
 LinEq1:  Iter=  6 NonCon=     1 RMS=4.61D-05 Max=5.68D-04 NDo=     1
 LinEq1:  Iter=  7 NonCon=     1 RMS=1.31D-05 Max=1.70D-04 NDo=     1
 LinEq1:  Iter=  8 NonCon=     1 RMS=2.91D-06 Max=3.92D-05 NDo=     1
 LinEq1:  Iter=  9 NonCon=     1 RMS=6.99D-07 Max=9.51D-06 NDo=     1
 LinEq1:  Iter= 10 NonCon=     1 RMS=1.62D-07 Max=2.37D-06 NDo=     1
 LinEq1:  Iter= 11 NonCon=     1 RMS=3.38D-08 Max=4.32D-07 NDo=     1
 LinEq1:  Iter= 12 NonCon=     1 RMS=6.55D-09 Max=8.70D-08 NDo=     1
 LinEq1:  Iter= 13 NonCon=     1 RMS=1.33D-09 Max=2.11D-08 NDo=     1
 LinEq1:  Iter= 14 NonCon=     1 RMS=3.41D-10 Max=4.82D-09 NDo=     1
 LinEq1:  Iter= 15 NonCon=     0 RMS=6.70D-11 Max=9.72D-10 NDo=     1
 Linear equations converged to 1.000D-10 1.000D-09 after    15 iterations.
 End of Minotr F.D. properties file   721 does not exist.
 End of Minotr F.D. properties file   722 does not exist.
 End of Minotr F.D. properties file   788 does not exist.
   4 Symmetry operations used in ECPInt.
 ECPInt:  NShTT=     703 NPrTT=    3029 LenC2=     698 LenP2D=    2551.
 LDataN:  DoStor=T MaxTD1= 7 Len=  274
 Calling FoFJK, ICntrl=  10002127 FMM=F ISym2X=1 I1Cent= 0 IOpClX= 0 NMat=1 NMatS=1 NMatT=0.
 ***** Axes restored to original set *****
 -------------------------------------------------------------------
 Center     Atomic                   Forces (Hartrees/Bohr)
 Number     Number              X              Y              Z
 -------------------------------------------------------------------
      1       22          -0.000004858    0.000000000   -0.000003531
      2        8          -0.000001360    0.000000000    0.000006978
      3        8           0.000006218    0.000000000   -0.000003446
 -------------------------------------------------------------------
 Cartesian Forces:  Max     0.000006978 RMS     0.000003904
 -----------------------------------------------------------------------------------------------
                       Internal Coordinate Forces (Hartree/Bohr or radian)
  Cent   Atom   N1       Length/X         N2         Alpha/Y        N3         Beta/Z          J
 -----------------------------------------------------------------------------------------------
      1  Ti
      2  O        1   0.000007(     1)
      3  O        1   0.000007(     2)      2   0.000004(     3)
 -----------------------------------------------------------------------------------------------
 Internal  Forces:  Max     0.000006978 RMS     0.000006221

 GradGradGradGradGradGradGradGradGradGradGradGradGradGradGradGradGradGrad
 Berny optimization.
 Search for a local minimum.
 Step number   5 out of a maximum of   20
 All quantities printed in internal units (Hartrees-Bohrs-Radians)
 Update second derivatives using D2CorN and points    3    5
 DE= -1.44D-07 DEPred=-1.26D-07 R= 1.14D+00
 Trust test= 1.14D+00 RLast= 6.79D-04 DXMaxT set to 3.96D-01
 The second derivative matrix:
                          R1        A1
           R1           0.82418
           A1          -0.01274   0.23377
 ITU=  0  1  1
     Eigenvalues ---    0.23349   0.82445
 RFO step:  Lambda= 0.00000000D+00 EMin= 2.33494274D-01
 Quartic linear search produced a step of  0.02970.
 Variable       Old X    -DE/DX   Delta X   Delta X   Delta X     New X
                                 (Linear)    (Quad)   (Total)
    R1        3.18127   0.00001   0.00002   0.00000   0.00002   3.18128
    A1        1.88442   0.00000   0.00001   0.00000   0.00001   1.88443
         Item               Value     Threshold  Converged?
 Maximum Force            0.000014     0.000450     YES
 RMS     Force            0.000010     0.000300     YES
 Maximum Displacement     0.000016     0.001800     YES
 RMS     Displacement     0.000014     0.001200     YES
 Predicted change in Energy=-1.555695D-10
 Optimization completed.
    -- Stationary point found.
                       ----------------------------
                       !   Optimized Parameters   !
                       ! (Angstroms and Degrees)  !
 ----------------------                            ----------------------
 !      Name          Value   Derivative information (Atomic Units)     !
 ------------------------------------------------------------------------
 !       R1          1.6835   -DE/DX =    0.0                           !
 !       A1        107.9692   -DE/DX =    0.0                           !
 ------------------------------------------------------------------------
 GradGradGradGradGradGradGradGradGradGradGradGradGradGradGradGradGradGrad

 ---------------------------------------------------------------------------------------------------
                            Z-MATRIX (ANGSTROMS AND DEGREES)
   CD    Cent   Atom    N1       Length/X        N2       Alpha/Y        N3        Beta/Z          J
 ---------------------------------------------------------------------------------------------------
      1      1  Ti
      2      2  O        1   1.683455(     1)
      3      3  O        1   1.683455(     2)      2  107.969(     3)
 ---------------------------------------------------------------------------------------------------
                         Z-Matrix orientation:                         
 ---------------------------------------------------------------------
 Center     Atomic      Atomic             Coordinates (Angstroms)
 Number     Number       Type             X           Y           Z
 ---------------------------------------------------------------------
      1         22           0        0.000000    0.000000    0.000000
      2          8           0        0.000000    0.000000    1.683455
      3          8           0        1.601341    0.000000   -0.519354
 ---------------------------------------------------------------------
                    Distance matrix (angstroms):
                    1          2          3
     1  Ti   0.000000
     2  O    1.683455   0.000000
     3  O    1.683455   2.723355   0.000000
 Stoichiometry    O2Ti
 Framework group  C2V[C2(Ti),SGV(O2)]
 Deg. of freedom     2
 Full point group                 C2V     NOp   4
 Largest Abelian subgroup         C2V     NOp   4
 Largest concise Abelian subgroup C2      NOp   2
                         Standard orientation:                         
 ---------------------------------------------------------------------
 Center     Atomic      Atomic             Coordinates (Angstroms)
 Number     Number       Type             X           Y           Z
 ---------------------------------------------------------------------
      1         22           0        0.000000    0.000000    0.416790
      2          8           0        0.000000    1.361677   -0.573086
      3          8           0        0.000000   -1.361677   -0.573086
 ---------------------------------------------------------------------
 Rotational constants (GHZ):          26.8797462           8.5203378           6.4696038

 **********************************************************************

            Population analysis using the SCF Density.

 **********************************************************************

 Orbital symmetries:
       Occupied  (A1) (A1) (A1) (B2) (A1) (B1) (B2) (A1) (B2) (A1)
                 (B1) (A1) (B2) (A1) (B2) (A2) (A1) (B1) (B2)
       Virtual   (A1) (B1) (A1) (B2) (A1) (A2) (B1) (A1) (A2) (A1)
                 (B2) (B1) (A1) (B2) (A1) (B2) (A1) (B1) (A2) (A1)
                 (B2) (A1) (B1) (B2) (A2) (A1) (B2) (A1) (B1) (A1)
                 (B2) (B1) (B2) (A2) (A1) (A1) (B1) (A2) (B2) (A1)
                 (B2) (B1) (A1) (A1) (A2) (B1) (B2) (A1) (B2) (B1)
                 (A2) (A1) (B2) (A1) (B1) (B2) (A2) (A1) (A1) (B2)
                 (A1) (B2) (A2) (B2) (A2) (B1) (A1) (B2) (A1) (B1)
                 (B1) (A1) (B2) (A2) (A1) (B2) (A2) (A1) (B2) (B1)
                 (B2) (B1) (A2) (A1) (A1) (B2) (A1) (B2)
 The electronic state is 1-A1.
 Alpha  occ. eigenvalues -- -183.41394 -21.58832 -20.50991 -20.50991 -17.95605
 Alpha  occ. eigenvalues --  -17.95470 -17.95468  -2.99696  -1.93096  -1.92695
 Alpha  occ. eigenvalues --   -1.91793  -1.16466  -1.15219  -0.49567  -0.48600
 Alpha  occ. eigenvalues --   -0.44462  -0.43634  -0.43128  -0.40275
 Alpha virt. eigenvalues --   -0.04073   0.04170   0.04725   0.08552   0.12391
 Alpha virt. eigenvalues --    0.13238   0.16685   0.16834   0.17281   0.18701
 Alpha virt. eigenvalues --    0.21578   0.21813   0.23903   0.29350   0.33015
 Alpha virt. eigenvalues --    0.61571   0.63293   0.66037   0.66119   0.68800
 Alpha virt. eigenvalues --    0.73370   0.75778   0.77286   0.78456   0.79136
 Alpha virt. eigenvalues --    0.81375   0.99359   1.00783   1.21797   1.36674
 Alpha virt. eigenvalues --    1.47966   1.53087   1.55765   1.56703   1.57080
 Alpha virt. eigenvalues --    1.58800   1.61361   1.82804   1.87411   1.90718
 Alpha virt. eigenvalues --    1.98537   2.03233   2.05418   2.14512   2.16775
 Alpha virt. eigenvalues --    2.19817   2.25820   2.33374   2.49606   2.50484
 Alpha virt. eigenvalues --    2.58877   2.59099   2.76583   2.78520   3.16669
 Alpha virt. eigenvalues --    3.17439   3.20976   3.26054   3.41094   3.41793
 Alpha virt. eigenvalues --    4.22757   4.37791   5.61779   5.62835   5.63454
 Alpha virt. eigenvalues --    5.63497   5.63602   5.63879   5.65333   5.68123
 Alpha virt. eigenvalues --    5.79655   5.81362   5.83574   5.85731   6.17047
 Alpha virt. eigenvalues --    6.19783   6.79938   6.82611   6.82665   6.83201
 Alpha virt. eigenvalues --    7.03728   7.04814   7.06477   7.14583   7.37940
 Alpha virt. eigenvalues --    7.56584  45.07080  45.09321
          Condensed to atoms (all electrons):
               1          2          3
     1  Ti  19.703179   0.385353   0.385353
     2  O    0.385353   8.375563   0.002141
     3  O    0.385353   0.002141   8.375563
 Mulliken charges:
               1
     1  Ti   1.526114
     2  O   -0.763057
     3  O   -0.763057
 Sum of Mulliken charges =   0.00000
 Mulliken charges with hydrogens summed into heavy atoms:
               1
     1  Ti   1.526114
     2  O   -0.763057
     3  O   -0.763057
 Electronic spatial extent (au):  <R**2>=            201.0097
 Charge=              0.0000 electrons
 Dipole moment (field-independent basis, Debye):
    X=              0.0000    Y=              0.0000    Z=              8.6669  Tot=              8.6669
 Quadrupole moment (field-independent basis, Debye-Ang):
   XX=            -22.5462   YY=            -39.1413   ZZ=            -22.5860
   XY=              0.0000   XZ=              0.0000   YZ=              0.0000
 Traceless Quadrupole moment (field-independent basis, Debye-Ang):
   XX=              5.5450   YY=            -11.0501   ZZ=              5.5052
   XY=              0.0000   XZ=              0.0000   YZ=              0.0000
 Octapole moment (field-independent basis, Debye-Ang**2):
  XXX=              0.0000  YYY=              0.0000  ZZZ=             15.2366  XYY=              0.0000
  XXY=              0.0000  XXZ=              4.8980  XZZ=              0.0000  YZZ=              0.0000
  YYZ=              9.2393  XYZ=              0.0000
 Hexadecapole moment (field-independent basis, Debye-Ang**3):
 XXXX=            -20.3418 YYYY=           -197.7876 ZZZZ=            -51.9844 XXXY=              0.0000
 XXXZ=              0.0000 YYYX=              0.0000 YYYZ=              0.0000 ZZZX=              0.0000
 ZZZY=              0.0000 XXYY=            -33.2384 XXZZ=            -11.7721 YYZZ=            -41.1448
 XXYZ=              0.0000 YYXZ=              0.0000 ZZXY=              0.0000
 N-N= 1.230835551267D+02 E-N=-2.612719087998D+03  KE= 9.975914610274D+02
 Symmetry A1   KE= 7.286804473609D+02
 Symmetry A2   KE= 4.219076529742D+00
 Symmetry B1   KE= 9.716490329498D+01
 Symmetry B2   KE= 1.675270338418D+02
 1|1|UNPC-DESKTOP-F4NP0R6|FOpt|RMP2-FC|def2TZVP|O2Ti1|GARRETT|22-Jul-20
 18|1||# MP2 Def2TZVP opt=(noeigen,calcfc,z-matrix) freq||TiO21a1||0,1|
 Ti|O,1,R1|O,1,R1,2,A1||R1=1.68345512|A1=107.96915552||Version=EM64W-G1
 6RevB.01|State=1-A1|HF=-998.1540561|MP2=-998.8621586|RMSD=7.920e-009|R
 MSF=3.904e-006|Dipole=-2.0777446,0.,-1.5104244|PG=C02V [C2(Ti1),SGV(O2
 )]||@


 Change starts when someone sees the next step.
                            -- William Drayton
 Job cpu time:       0 days  0 hours  5 minutes 41.0 seconds.
 Elapsed time:       0 days  0 hours  5 minutes 11.7 seconds.
 File lengths (MBytes):  RWF=   1341 Int=      0 D2E=      0 Chk=      2 Scr=      1
 Normal termination of Gaussian 16 at Sun Jul 22 13:34:39 2018.
 Link1:  Proceeding to internal job step number  2.
 ----------------------------------------------------------------------
 #N Geom=AllCheck Guess=TCheck SCRF=Check GenChk RMP2(FC)/def2TZVP Freq
 ----------------------------------------------------------------------
 1/10=4,11=1,29=7,30=1,38=1,40=1/1,3;
 2/12=2,40=1/2;
 3/5=44,7=101,11=1,14=-4,25=1,30=1,70=2,71=2,116=1,140=1/1,2,3;
 4/5=101/1;
 5/5=2,38=6,98=1/2;
 8/6=3,8=1,10=1,19=11,30=-1/1;
 9/15=3,16=-3/6;
 11/6=1,8=1,15=11,17=12,24=-1,27=1,28=-2,29=300,32=6,42=3/1,2,10;
 10/6=2,21=1/2;
 8/6=4,8=1,10=1,19=11,30=-1/11,4;
 10/5=1,20=4/2;
 11/12=2,14=11,16=1,17=2,28=-2,42=3,76=2/2,10,12;
 6/7=2,8=2,9=2,10=2/1;
 7/8=1,10=1,12=2,25=1,44=2/1,2,3,16;
 1/10=4,11=1,30=1/3;
 99//99;
 Structure from the checkpoint file:  "TiO21aHigher1.chk"
 -------
 TiO21a1
 -------
 Charge =  0 Multiplicity = 1
 Z-Matrix found in chk file.
 Ti
 O,1,R1
 O,1,R1,2,A1
      Variables:
 R1=1.68345512
 A1=107.96915552
 Recover connectivity data from disk.

 GradGradGradGradGradGradGradGradGradGradGradGradGradGradGradGradGradGrad
 Berny optimization.
 Initialization pass.
                       ----------------------------
                       !    Initial Parameters    !
                       ! (Angstroms and Degrees)  !
 ----------------------                            ----------------------
 !      Name          Value   Derivative information (Atomic Units)     !
 ------------------------------------------------------------------------
 !       R1          1.6835   calculate D2E/DX2 analytically            !
 !       A1        107.9692   calculate D2E/DX2 analytically            !
 ------------------------------------------------------------------------
 Trust Radius=3.00D-01 FncErr=1.00D-07 GrdErr=1.00D-07 EigMax=2.50D+02 EigMin=1.00D-04
 Number of steps in this run=      2 maximum allowed number of steps=      2.
 GradGradGradGradGradGradGradGradGradGradGradGradGradGradGradGradGradGrad

[...]
 LTotAB=    10440956 MaxLAS=     9825489 LenRXY=           0
 NonZer=    30743368 LenScr=    46879232 LnRSAI=     9825489
 LnScr1=    15513600 LExtra=           0 Total=     92810483
 MaxDsk=          -1 SrtSym=           T ITran=            4
 JobTyp=0 Pass  1:  I=   1 to  19.
 (rs|ai) integrals will be sorted in core.
 Spin components of T(2) and E(2):
     alpha-alpha T2 =       0.4460104137D-01 E2=     -0.1036565590D+00
     alpha-beta  T2 =       0.1923950743D+00 E2=     -0.5007894458D+00
     beta-beta   T2 =       0.4460104137D-01 E2=     -0.1036565590D+00
 ANorm=    0.1600997912D+01
 E2 =    -0.7081025638D+00 EUMP2 =    -0.99886215863080D+03
          IDoAtm=111
          Differentiating once with respect to electric field.
                with respect to dipole field.
          Differentiating once with respect to nuclear coordinates.
          There are     1 degrees of freedom in the 1st order CPHF.  IDoFFX=0 NUNeed=     1.
 LinEq1:  Iter=  0 NonCon=     1 RMS=1.52D-02 Max=2.55D-01 NDo=     1
 LinEq1:  Iter=  1 NonCon=     1 RMS=8.18D-03 Max=9.28D-02 NDo=     1
 LinEq1:  Iter=  2 NonCon=     1 RMS=4.06D-03 Max=5.55D-02 NDo=     1
 LinEq1:  Iter=  3 NonCon=     1 RMS=1.83D-03 Max=2.10D-02 NDo=     1
 LinEq1:  Iter=  4 NonCon=     1 RMS=4.60D-04 Max=5.48D-03 NDo=     1
 LinEq1:  Iter=  5 NonCon=     1 RMS=1.38D-04 Max=2.05D-03 NDo=     1
 LinEq1:  Iter=  6 NonCon=     1 RMS=4.61D-05 Max=5.68D-04 NDo=     1
 LinEq1:  Iter=  7 NonCon=     1 RMS=1.31D-05 Max=1.70D-04 NDo=     1
 LinEq1:  Iter=  8 NonCon=     1 RMS=2.91D-06 Max=3.92D-05 NDo=     1
 LinEq1:  Iter=  9 NonCon=     1 RMS=6.99D-07 Max=9.51D-06 NDo=     1
 LinEq1:  Iter= 10 NonCon=     1 RMS=1.62D-07 Max=2.37D-06 NDo=     1
 LinEq1:  Iter= 11 NonCon=     1 RMS=3.38D-08 Max=4.32D-07 NDo=     1
 LinEq1:  Iter= 12 NonCon=     1 RMS=6.55D-09 Max=8.70D-08 NDo=     1
 LinEq1:  Iter= 13 NonCon=     1 RMS=1.33D-09 Max=2.11D-08 NDo=     1
 LinEq1:  Iter= 14 NonCon=     1 RMS=3.41D-10 Max=4.82D-09 NDo=     1
 LinEq1:  Iter= 15 NonCon=     0 RMS=6.70D-11 Max=9.72D-10 NDo=     1
 Linear equations converged to 1.000D-10 1.000D-09 after    15 iterations.
 End of Minotr F.D. properties file   721 does not exist.
 End of Minotr F.D. properties file   722 does not exist.
 End of Minotr F.D. properties file   788 does not exist.
 Symmetrizing basis deriv contribution to polar:
 IMax=3 JMax=2 DiffMx= 0.00D+00
 G2DrvN: will do     4 centers at a time, making    1 passes.
 Calling FoFCou, ICntrl=  3107 FMM=F I1Cent=   0 AccDes= 0.00D+00.
 End of G2Drv F.D. properties file   721 does not exist.
 End of G2Drv F.D. properties file   722 does not exist.
 End of G2Drv F.D. properties file   788 does not exist.
 R2 and R3 integrals will be kept in memory, NReq=    62010250.
 DD1Dir will call FoFMem   1 times, MxPair=       380
 NAB=   190 NAA=     0 NBB=     0.
 Discarding MO integrals.

 **********************************************************************

            Population analysis using the SCF Density.

 **********************************************************************

 Orbital symmetries:
       Occupied  (A1) (A1) (A1) (B2) (A1) (B1) (B2) (A1) (B2) (A1)
                 (B1) (A1) (B2) (A1) (B2) (A2) (A1) (B1) (B2)
       Virtual   (A1) (B1) (A1) (B2) (A1) (A2) (B1) (A1) (A2) (A1)
                 (B2) (B1) (A1) (B2) (A1) (B2) (A1) (B1) (A2) (A1)
                 (B2) (A1) (B1) (B2) (A2) (A1) (B2) (A1) (B1) (A1)
                 (B2) (B1) (B2) (A2) (A1) (A1) (B1) (A2) (B2) (A1)
                 (B2) (B1) (A1) (A1) (A2) (B1) (B2) (A1) (B2) (B1)
                 (A2) (A1) (B2) (A1) (B1) (B2) (A2) (A1) (A1) (B2)
                 (A1) (B2) (A2) (B2) (A2) (B1) (A1) (B2) (A1) (B1)
                 (B1) (A1) (B2) (A2) (A1) (B2) (A2) (A1) (B2) (B1)
                 (B2) (B1) (A2) (A1) (A1) (B2) (A1) (B2)
 The electronic state is 1-A1.
 Alpha  occ. eigenvalues -- -183.41394 -21.58832 -20.50991 -20.50991 -17.95605
 Alpha  occ. eigenvalues --  -17.95470 -17.95468  -2.99696  -1.93096  -1.92695
 Alpha  occ. eigenvalues --   -1.91793  -1.16466  -1.15219  -0.49567  -0.48600
 Alpha  occ. eigenvalues --   -0.44462  -0.43634  -0.43128  -0.40275
 Alpha virt. eigenvalues --   -0.04073   0.04170   0.04725   0.08552   0.12391
 Alpha virt. eigenvalues --    0.13238   0.16685   0.16834   0.17281   0.18701
 Alpha virt. eigenvalues --    0.21578   0.21813   0.23903   0.29350   0.33015
 Alpha virt. eigenvalues --    0.61571   0.63293   0.66037   0.66119   0.68800
 Alpha virt. eigenvalues --    0.73370   0.75778   0.77286   0.78456   0.79136
 Alpha virt. eigenvalues --    0.81375   0.99359   1.00783   1.21797   1.36674
 Alpha virt. eigenvalues --    1.47966   1.53087   1.55765   1.56703   1.57080
 Alpha virt. eigenvalues --    1.58800   1.61361   1.82804   1.87411   1.90718
 Alpha virt. eigenvalues --    1.98537   2.03233   2.05418   2.14512   2.16775
 Alpha virt. eigenvalues --    2.19817   2.25820   2.33374   2.49606   2.50484
 Alpha virt. eigenvalues --    2.58877   2.59099   2.76583   2.78520   3.16669
 Alpha virt. eigenvalues --    3.17439   3.20976   3.26054   3.41094   3.41793
 Alpha virt. eigenvalues --    4.22757   4.37791   5.61779   5.62835   5.63454
 Alpha virt. eigenvalues --    5.63497   5.63602   5.63879   5.65333   5.68123
 Alpha virt. eigenvalues --    5.79655   5.81362   5.83574   5.85731   6.17047
 Alpha virt. eigenvalues --    6.19783   6.79938   6.82611   6.82665   6.83201
 Alpha virt. eigenvalues --    7.03728   7.04814   7.06477   7.14583   7.37940
 Alpha virt. eigenvalues --    7.56584  45.07080  45.09321
          Condensed to atoms (all electrons):
               1          2          3
     1  Ti  19.703179   0.385353   0.385353
     2  O    0.385353   8.375563   0.002141
     3  O    0.385353   0.002141   8.375563
 Mulliken charges:
               1
     1  Ti   1.526114
     2  O   -0.763057
     3  O   -0.763057
 Sum of Mulliken charges =   0.00000
 Mulliken charges with hydrogens summed into heavy atoms:
               1
     1  Ti   1.526114
     2  O   -0.763057
     3  O   -0.763057
 APT charges:
               1
     1  Ti   1.359868
     2  O   -0.679934
     3  O   -0.679934
 Sum of APT charges =   0.00000
 APT charges with hydrogens summed into heavy atoms:
               1
     1  Ti   1.359868
     2  O   -0.679934
     3  O   -0.679934
 Electronic spatial extent (au):  <R**2>=            201.0097
 Charge=              0.0000 electrons
 Dipole moment (field-independent basis, Debye):
    X=              0.0000    Y=              0.0000    Z=              8.6669  Tot=              8.6669
 Quadrupole moment (field-independent basis, Debye-Ang):
   XX=            -22.5462   YY=            -39.1413   ZZ=            -22.5860
   XY=              0.0000   XZ=              0.0000   YZ=              0.0000
 Traceless Quadrupole moment (field-independent basis, Debye-Ang):
   XX=              5.5450   YY=            -11.0501   ZZ=              5.5052
   XY=              0.0000   XZ=              0.0000   YZ=              0.0000
 Octapole moment (field-independent basis, Debye-Ang**2):
  XXX=              0.0000  YYY=              0.0000  ZZZ=             15.2366  XYY=              0.0000
  XXY=              0.0000  XXZ=              4.8980  XZZ=              0.0000  YZZ=              0.0000
  YYZ=              9.2393  XYZ=              0.0000
 Hexadecapole moment (field-independent basis, Debye-Ang**3):
 XXXX=            -20.3418 YYYY=           -197.7876 ZZZZ=            -51.9844 XXXY=              0.0000
 XXXZ=              0.0000 YYYX=              0.0000 YYYZ=              0.0000 ZZZX=              0.0000
 ZZZY=              0.0000 XXYY=            -33.2384 XXZZ=            -11.7721 YYZZ=            -41.1448
 XXYZ=              0.0000 YYXZ=              0.0000 ZZXY=              0.0000
 N-N= 1.230835551267D+02 E-N=-2.612719087974D+03  KE= 9.975914609287D+02
 Symmetry A1   KE= 7.286804473485D+02
 Symmetry A2   KE= 4.219076534578D+00
 Symmetry B1   KE= 9.716490321120D+01
 Symmetry B2   KE= 1.675270338344D+02
  Exact polarizability:  19.681   0.000  58.043   0.000   0.000  28.379
 Approx polarizability:  16.525   0.000  42.631   0.000   0.000  30.365
   4 Symmetry operations used in ECPInt.
 ECPInt:  NShTT=     703 NPrTT=    3029 LenC2=     698 LenP2D=    2551.
 LDataN:  DoStor=T MaxTD1= 8 Len=  415
 Calling FoFJK, ICntrl=  10100127 FMM=F ISym2X=1 I1Cent= 0 IOpClX= 0 NMat=1 NMatS=1 NMatT=0.
 Full mass-weighted force constant matrix:
 Low frequencies ---   -2.0859   -2.0511   -2.0460   -0.0068   -0.0068   -0.0038
 Low frequencies ---  320.9155  896.4746  942.0899
 Diagonal vibrational polarizability:
        0.0000000       7.6881721       1.4687663
 Harmonic frequencies (cm**-1), IR intensities (KM/Mole), Raman scattering
 activities (A**4/AMU), depolarization ratios for plane and unpolarized
 incident light, reduced masses (AMU), force constants (mDyne/A),
 and normal coordinates:
                      1                      2                      3
                     A1                     A1                     B2
 Frequencies --    320.9155               896.4746               942.0899
 Red. masses --     18.3613                18.5515                20.0563
 Frc consts  --      1.1141                 8.7843                10.4878
 IR Inten    --      5.0668                 4.3234               253.5564
  Atom  AN      X      Y      Z        X      Y      Z        X      Y      Z
     1  22     0.00   0.00  -0.27     0.00   0.00   0.28     0.00   0.36   0.00
     2   8     0.00   0.54   0.41     0.00   0.53  -0.42     0.00  -0.53   0.39
     3   8     0.00  -0.54   0.41     0.00  -0.53  -0.42     0.00  -0.53  -0.39

 -------------------
 - Thermochemistry -
 -------------------
 Temperature   298.150 Kelvin.  Pressure   1.00000 Atm.
 Atom     1 has atomic number 22 and mass  47.94795
 Atom     2 has atomic number  8 and mass  15.99491
 Atom     3 has atomic number  8 and mass  15.99491
 Molecular mass:    79.93778 amu.
 Principal axes and moments of inertia in atomic units:
                           1         2         3
     Eigenvalues --    67.14130 211.81569 278.95699
           X            0.00000   0.00000   1.00000
           Y            1.00000   0.00000   0.00000
           Z            0.00000   1.00000   0.00000
 This molecule is an asymmetric top.
 Rotational symmetry number  2.
 Rotational temperatures (Kelvin)      1.29002     0.40891     0.31049
 Rotational constants (GHZ):          26.87975     8.52034     6.46960
 Zero-point vibrational energy      12916.6 (Joules/Mol)
                                    3.08713 (Kcal/Mol)
 Warning -- explicit consideration of   1 degrees of freedom as
           vibrations may cause significant error
 Vibrational temperatures:    461.73  1289.83  1355.46
          (Kelvin)
 
 Zero-point correction=                           0.004920 (Hartree/Particle)
 Thermal correction to Energy=                    0.008248
 Thermal correction to Enthalpy=                  0.009192
 Thermal correction to Gibbs Free Energy=        -0.020332
 Sum of electronic and zero-point Energies=           -998.857239
 Sum of electronic and thermal Energies=              -998.853911
 Sum of electronic and thermal Enthalpies=            -998.852967
 Sum of electronic and thermal Free Energies=         -998.882490
 
                     E (Thermal)             CV                S
                      KCal/Mol        Cal/Mol-Kelvin    Cal/Mol-Kelvin
 Total                    5.175              8.545             62.137
 Electronic               0.000              0.000              0.000
 Translational            0.889              2.981             39.051
 Rotational               0.889              2.981             21.522
 Vibrational              3.398              2.583              1.565
 Vibration     1          0.706              1.633              1.305
                       Q            Log10(Q)             Ln(Q)
 Total Bot       0.224873D+10          9.351937         21.533632
 Total V=0       0.411928D+12         11.614821         26.744113
 Vib (Bot)       0.710064D-02         -2.148703         -4.947571
 Vib (Bot)    1  0.585448D+00         -0.232512         -0.535378
 Vib (V=0)       0.130071D+01          0.114181          0.262911
 Vib (V=0)    1  0.126990D+01          0.103770          0.238940
 Electronic      0.100000D+01          0.000000          0.000000
 Translational   0.280920D+08          7.448582         17.150994
 Rotational      0.112735D+05          4.052058          9.330209
 ***** Axes restored to original set *****
 -------------------------------------------------------------------
 Center     Atomic                   Forces (Hartrees/Bohr)
 Number     Number              X              Y              Z
 -------------------------------------------------------------------
      1       22          -0.000004857    0.000000000   -0.000003531
      2        8          -0.000001359    0.000000000    0.000006975
      3        8           0.000006215    0.000000000   -0.000003444
 -------------------------------------------------------------------
 Cartesian Forces:  Max     0.000006975 RMS     0.000003902
 -----------------------------------------------------------------------------------------------
                       Internal Coordinate Forces (Hartree/Bohr or radian)
  Cent   Atom   N1       Length/X         N2         Alpha/Y        N3         Beta/Z          J
 -----------------------------------------------------------------------------------------------
      1  Ti
      2  O        1   0.000007(     1)
      3  O        1   0.000007(     2)      2   0.000004(     3)
 -----------------------------------------------------------------------------------------------
 Internal  Forces:  Max     0.000006975 RMS     0.000006218

 GradGradGradGradGradGradGradGradGradGradGradGradGradGradGradGradGradGrad
 Berny optimization.
 Search for a local minimum.
 Step number   1 out of a maximum of    2
 All quantities printed in internal units (Hartrees-Bohrs-Radians)
 Second derivative matrix not updated -- analytic derivatives used.
 The second derivative matrix:
                          R1        A1
           R1           0.77880
           A1          -0.01214   0.23657
 ITU=  0
     Eigenvalues ---    0.23630   0.77907
 Angle between quadratic step and forces=  29.31 degrees.
 Linear search not attempted -- first point.
 Variable       Old X    -DE/DX   Delta X   Delta X   Delta X     New X
                                 (Linear)    (Quad)   (Total)
    R1        3.18127   0.00001   0.00000   0.00002   0.00002   3.18129
    A1        1.88442   0.00000   0.00000   0.00002   0.00002   1.88444
         Item               Value     Threshold  Converged?
 Maximum Force            0.000014     0.000450     YES
 RMS     Force            0.000010     0.000300     YES
 Maximum Displacement     0.000019     0.001800     YES
 RMS     Displacement     0.000019     0.001200     YES
 Predicted change in Energy=-1.685297D-10
 Optimization completed.
    -- Stationary point found.
                       ----------------------------
                       !   Optimized Parameters   !
                       ! (Angstroms and Degrees)  !
 ----------------------                            ----------------------
 !      Name          Value   Derivative information (Atomic Units)     !
 ------------------------------------------------------------------------
 !       R1          1.6835   -DE/DX =    0.0                           !
 !       A1        107.9692   -DE/DX =    0.0                           !
 ------------------------------------------------------------------------
 GradGradGradGradGradGradGradGradGradGradGradGradGradGradGradGradGradGrad


 ----------------------------------------------------------------------

 Electric dipole moment (input orientation):
 (Debye = 10**-18 statcoulomb cm , SI units = C m)
                  (au)            (Debye)         (10**-30 SI)
   Tot        0.256874D+01      0.652908D+01      0.217787D+02
   x         -0.207774D+01     -0.528110D+01     -0.176159D+02
   y          0.000000D+00      0.000000D+00      0.000000D+00
   z         -0.151042D+01     -0.383912D+01     -0.128059D+02

 Dipole polarizability, Alpha (input orientation).
 (esu units = cm**3 , SI units = C**2 m**2 J**-1)
 Alpha(0;0):
               (au)            (10**-24 esu)      (10**-40 SI)
   iso        0.353678D+02      0.524097D+01      0.583137D+01
   aniso      0.348377D+02      0.516241D+01      0.574395D+01
   xx         0.386355D+02      0.572519D+01      0.637013D+01
   yx         0.000000D+00      0.000000D+00      0.000000D+00
   yy         0.196809D+02      0.291641D+01      0.324494D+01
   zx        -0.141087D+02     -0.209070D+01     -0.232622D+01
   zy         0.000000D+00      0.000000D+00      0.000000D+00
   zz         0.477871D+02      0.708132D+01      0.787903D+01

 ----------------------------------------------------------------------

 Dipole orientation:
    22          0.00000000          0.00000000          0.00000000
     8         -2.57319737          0.00000000         -1.87059577
     8          2.57319737          0.00000000         -1.87059577

 Electric dipole moment (dipole orientation):
 (Debye = 10**-18 statcoulomb cm , SI units = C m)
                  (au)            (Debye)         (10**-30 SI)
   Tot        0.256874D+01      0.652908D+01      0.217787D+02
   x          0.000000D+00      0.000000D+00      0.000000D+00
   y          0.000000D+00      0.000000D+00      0.000000D+00
   z          0.256874D+01      0.652908D+01      0.217787D+02

 Dipole polarizability, Alpha (dipole orientation).
 (esu units = cm**3 , SI units = C**2 m**2 J**-1)
 Alpha(0;0):
               (au)            (10**-24 esu)      (10**-40 SI)
   iso        0.353678D+02      0.524097D+01      0.583137D+01
   aniso      0.348377D+02      0.516241D+01      0.574395D+01
   xx         0.580435D+02      0.860116D+01      0.957008D+01
   yx         0.000000D+00      0.000000D+00      0.000000D+00
   yy         0.196809D+02      0.291641D+01      0.324494D+01
   zx         0.000000D+00      0.000000D+00      0.000000D+00
   zy         0.000000D+00      0.000000D+00      0.000000D+00
   zz         0.283791D+02      0.420534D+01      0.467908D+01

 ----------------------------------------------------------------------
 1|1|UNPC-DESKTOP-F4NP0R6|Freq|RMP2-FC|def2TZVP|O2Ti1|GARRETT|22-Jul-20
 18|1||#N Geom=AllCheck Guess=TCheck SCRF=Check GenChk RMP2(FC)/def2TZV
 P Freq||TiO21a1||0,1|Ti|O,1,R1|O,1,R1,2,A1||R1=1.68345512|A1=107.96915
 552||Version=EM64W-G16RevB.01|State=1-A1|HF=-998.1540561|MP2=-998.8621
 586|RMSD=1.132e-009|RMSF=3.902e-006|ZeroPoint=0.0049197|Thermal=0.0082
 476|Dipole=-2.0777446,0.,-1.5104245|DipoleDeriv=1.0681451,0.,-0.878899
 3,0.,1.373218,0.,-0.8788993,0.,1.6382424,-0.3852421,0.,0.2190793,0.,-0
 .686609,0.,0.5632812,0.,-0.9679517,-0.682903,0.,0.6598199,0.,-0.686609
 ,0.,0.3156181,0.,-0.6702908|Polar=38.6354733,0.,19.6809033,-14.1087396
 ,0.,47.7870967|PG=C02V [C2(Ti1),SGV(O2)]|NImag=0||0.39013455,0.,-0.000
 00305,-0.07213037,0.,0.43692187,-0.03240031,0.,-0.02355473,0.02337357,
 0.,0.00000153,0.,0.,-0.00000208,-0.00982871,0.,-0.38112790,0.00190790,
 0.,0.38169067,-0.35773424,0.,0.09568510,0.00902674,0.,0.00792081,0.348
 70750,0.,0.00000153,0.,0.,0.00000055,0.,0.,-0.00000208,0.08195908,0.,-
 0.05579397,0.02164683,0.,-0.00056277,-0.10360591,0.,0.05635674||0.0000
 0486,0.,0.00000353,0.00000136,0.,-0.00000697,-0.00000622,0.,0.00000344
 |||@


 A true friend is someone who is there for
 you when he'd rather be anywhere else.
                               -- Len Wein
 Job cpu time:       0 days  0 hours  4 minutes 22.0 seconds.
 Elapsed time:       0 days  0 hours  4 minutes 14.7 seconds.
 File lengths (MBytes):  RWF=   1341 Int=      0 D2E=      0 Chk=      2 Scr=      1
 Normal termination of Gaussian 16 at Sun Jul 22 13:39:01 2018.
