 Entering Link 1 = C:\G16W\l1.exe PID=      7308.
  
 Copyright (c) 1988-2017, Gaussian, Inc.  All Rights Reserved.
  
 This is part of the Gaussian(R) 16 program.  It is based on
 the Gaussian(R) 09 system (copyright 2009, Gaussian, Inc.),
 the Gaussian(R) 03 system (copyright 2003, Gaussian, Inc.),
 the Gaussian(R) 98 system (copyright 1998, Gaussian, Inc.),
 the Gaussian(R) 94 system (copyright 1995, Gaussian, Inc.),
 the Gaussian 92(TM) system (copyright 1992, Gaussian, Inc.),
 the Gaussian 90(TM) system (copyright 1990, Gaussian, Inc.),
 the Gaussian 88(TM) system (copyright 1988, Gaussian, Inc.),
 the Gaussian 86(TM) system (copyright 1986, Carnegie Mellon
 University), and the Gaussian 82(TM) system (copyright 1983,
 Carnegie Mellon University). Gaussian is a federally registered
 trademark of Gaussian, Inc.
  
 This software contains proprietary and confidential information,
 including trade secrets, belonging to Gaussian, Inc.
  
 This software is provided under written license and may be
 used, copied, transmitted, or stored only in accord with that
 written license.
  
 The following legend is applicable only to US Government
 contracts under FAR:
  
                    RESTRICTED RIGHTS LEGEND
  
 Use, reproduction and disclosure by the US Government is
 subject to restrictions as set forth in subparagraphs (a)
 and (c) of the Commercial Computer Software - Restricted
 Rights clause in FAR 52.227-19.
  
 Gaussian, Inc.
 340 Quinnipiac St., Bldg. 40, Wallingford CT 06492
  
  
 ---------------------------------------------------------------
 Warning -- This program may not be used in any manner that
 competes with the business of Gaussian, Inc. or will provide
 assistance to any competitor of Gaussian, Inc.  The licensee
 of this program is prohibited from giving any competitor of
 Gaussian, Inc. access to this program.  By using this program,
 the user acknowledges that Gaussian, Inc. is engaged in the
 business of creating and licensing software in the field of
 computational chemistry and represents and warrants to the
 licensee that it is not a competitor of Gaussian, Inc. and that
 it will not use this program in any manner prohibited above.
 ---------------------------------------------------------------
  

 Cite this work as:
 Gaussian 16, Revision B.01,
 M. J. Frisch, G. W. Trucks, H. B. Schlegel, G. E. Scuseria, 
 M. A. Robb, J. R. Cheeseman, G. Scalmani, V. Barone, 
 G. A. Petersson, H. Nakatsuji, X. Li, M. Caricato, A. V. Marenich, 
 J. Bloino, B. G. Janesko, R. Gomperts, B. Mennucci, H. P. Hratchian, 
 J. V. Ortiz, A. F. Izmaylov, J. L. Sonnenberg, D. Williams-Young, 
 F. Ding, F. Lipparini, F. Egidi, J. Goings, B. Peng, A. Petrone, 
 T. Henderson, D. Ranasinghe, V. G. Zakrzewski, J. Gao, N. Rega, 
 G. Zheng, W. Liang, M. Hada, M. Ehara, K. Toyota, R. Fukuda, 
 J. Hasegawa, M. Ishida, T. Nakajima, Y. Honda, O. Kitao, H. Nakai, 
 T. Vreven, K. Throssell, J. A. Montgomery, Jr., J. E. Peralta, 
 F. Ogliaro, M. J. Bearpark, J. J. Heyd, E. N. Brothers, K. N. Kudin, 
 V. N. Staroverov, T. A. Keith, R. Kobayashi, J. Normand, 
 K. Raghavachari, A. P. Rendell, J. C. Burant, S. S. Iyengar, 
 J. Tomasi, M. Cossi, J. M. Millam, M. Klene, C. Adamo, R. Cammi, 
 J. W. Ochterski, R. L. Martin, K. Morokuma, O. Farkas, 
 J. B. Foresman, and D. J. Fox, Gaussian, Inc., Wallingford CT, 2016.
 
 ******************************************
 Gaussian 16:  EM64W-G16RevB.01 16-Dec-2017
                22-Jul-2018 
 ******************************************
 %nproc=2
 Will use up to    2 processors via shared memory.
 %mem=4gb
 %chk=TiO21aHigher1.7.chk
 ------------------------------------------
 # MP2 Def2TZVP opt=(noeigen,z-matrix) freq
 ------------------------------------------
 1/10=7,11=1,18=40,38=1/1,3;
 2/12=2,17=6,18=5,29=3,40=1/2;
 3/5=44,7=101,11=9,25=1,30=1,71=1/1,2,3;
 4//1;
 5/5=2,38=5/2;
 8/6=4,10=1/1;
 9/15=2,16=-3/6;
 10/5=1/2;
 6/7=2,8=2,9=2,10=2/1;
 7/12=2,29=1/1,2,3,16;
 1/10=7,11=1,18=40/3(2);
 2/29=3/2;
 99//99;
 2/29=3/2;
 3/5=44,7=101,11=9,25=1,30=1,71=1/1,2,3;
 4/5=5,16=3,69=1/1;
 5/5=2,38=5/2;
 8/6=4,10=1/1;
 9/15=2,16=-3/6;
 10/5=1/2;
 7/12=2/1,2,3,16;
 1/11=1,18=40/3(-8);
 2/29=3/2;
 6/7=2,8=2,9=2,10=2/1;
 99/9=10/99;
 -------
 TiO21a1
 -------
 Symbolic Z-matrix:
 Charge =  0 Multiplicity = 1
 Ti
 O                    1    R1
 O                    1    R2       2    A1
       Variables:
  R1                    1.68346                  
  A1                  107.96916                  
       Constants:
  R2                    1.625                    
 

 GradGradGradGradGradGradGradGradGradGradGradGradGradGradGradGradGradGrad
 Berny optimization.
 Initialization pass.
                       ----------------------------
                       !    Initial Parameters    !
                       ! (Angstroms and Degrees)  !
 ----------------------                            ----------------------
 !      Name          Value   Derivative information (Atomic Units)     !
 ------------------------------------------------------------------------
 !       R1          1.6835   estimate D2E/DX2                          !
 !       A1        107.9692   estimate D2E/DX2                          !
 !       R2          1.625    Frozen                                    !
 ------------------------------------------------------------------------
 Trust Radius=3.00D-01 FncErr=1.00D-07 GrdErr=1.00D-07 EigMax=2.50D+02 EigMin=1.00D-04
 Number of steps in this run=     20 maximum allowed number of steps=    100.
 GradGradGradGradGradGradGradGradGradGradGradGradGradGradGradGradGradGrad

 ---------------------------------------------------------------------------------------------------
                            Z-MATRIX (ANGSTROMS AND DEGREES)
   CD    Cent   Atom    N1       Length/X        N2       Alpha/Y        N3        Beta/Z          J
 ---------------------------------------------------------------------------------------------------
      1      1  Ti
      2      2  O        1   1.683455(     1)
      3      3  O        1   1.625000(     2)      2  107.969(     3)
 ---------------------------------------------------------------------------------------------------
                         Z-Matrix orientation:                         
 ---------------------------------------------------------------------
 Center     Atomic      Atomic             Coordinates (Angstroms)
 Number     Number       Type             X           Y           Z
 ---------------------------------------------------------------------
      1         22           0        0.000000    0.000000    0.000000
      2          8           0        0.000000    0.000000    1.683455
      3          8           0        1.545737    0.000000   -0.501321
 ---------------------------------------------------------------------
                    Distance matrix (angstroms):
                    1          2          3
     1  Ti   0.000000
     2  O    1.683455   0.000000
     3  O    1.625000   2.676294   0.000000
 Stoichiometry    O2Ti
 Framework group  CS[SG(O2Ti)]
 Deg. of freedom     3
 Full point group                 CS      NOp   2
 Largest Abelian subgroup         CS      NOp   2
 Largest concise Abelian subgroup C1      NOp   1
                         Standard orientation:                         
 ---------------------------------------------------------------------
 Center     Atomic      Atomic             Coordinates (Angstroms)
 Number     Number       Type             X           Y           Z
 ---------------------------------------------------------------------
      1         22           0        0.000000    0.409675    0.000000
      2          8           0        1.337224   -0.612995    0.000000
      3          8           0       -1.337224   -0.513611    0.000000
 ---------------------------------------------------------------------
 Rotational constants (GHZ):          27.8777898           8.8169828           6.6984471
 Standard basis: def2TZVP (5D, 7F)
 There are    86 symmetry adapted cartesian basis functions of A'  symmetry.
 There are    38 symmetry adapted cartesian basis functions of A"  symmetry.
 There are    72 symmetry adapted basis functions of A'  symmetry.
 There are    35 symmetry adapted basis functions of A"  symmetry.
   107 basis functions,   204 primitive gaussians,   124 cartesian basis functions
    19 alpha electrons       19 beta electrons
       nuclear repulsion energy       125.2923638340 Hartrees.
 NAtoms=    3 NActive=    3 NUniq=    3 SFac= 1.00D+00 NAtFMM=   60 NAOKFM=F Big=F
 Integral buffers will be    131072 words long.
 Raffenetti 1 integral format.
 Two-electron integral symmetry is turned on.
 One-electron integrals computed using PRISM.
   2 Symmetry operations used in ECPInt.
 ECPInt:  NShTT=     703 NPrTT=    3029 LenC2=     698 LenP2D=    2553.
 LDataN:  DoStor=T MaxTD1= 6 Len=  172
 NBasis=   107 RedAO= T EigKep=  3.37D-03  NBF=    72    35
 NBsUse=   107 1.00D-06 EigRej= -1.00D+00 NBFU=    72    35
 ExpMin= 3.27D-02 ExpMax= 2.12D+05 ExpMxC= 2.04D+03 IAcc=3 IRadAn=         5 AccDes= 0.00D+00
 Harris functional with IExCor=  205 and IRadAn=       5 diagonalized for initial guess.
 HarFok:  IExCor=  205 AccDes= 0.00D+00 IRadAn=         5 IDoV= 1 UseB2=F ITyADJ=14
 ICtDFT=  3500011 ScaDFX=  1.000000  1.000000  1.000000  1.000000
 FoFCou: FMM=F IPFlag=           0 FMFlag=      100000 FMFlg1=           0
         NFxFlg=           0 DoJE=T BraDBF=F KetDBF=T FulRan=T
         wScrn=  0.000000 ICntrl=       500 IOpCl=  0 I1Cent=   200000004 NGrid=           0
         NMat0=    1 NMatS0=      1 NMatT0=    0 NMatD0=    1 NMtDS0=    0 NMtDT0=    0
 Petite list used in FoFCou.
 Initial guess orbital symmetries:
       Occupied  (A') (A') (A') (A') (A') (A') (A") (A') (A') (A')
                 (A") (A') (A') (A') (A") (A') (A") (A') (A')
       Virtual   (A') (A") (A') (A") (A') (A') (A") (A') (A") (A')
                 (A") (A') (A') (A') (A') (A') (A') (A') (A') (A")
                 (A") (A") (A") (A') (A') (A') (A') (A') (A") (A')
                 (A') (A") (A") (A') (A') (A') (A") (A") (A') (A')
                 (A") (A') (A') (A') (A") (A") (A') (A') (A') (A")
                 (A') (A") (A') (A') (A") (A') (A") (A') (A') (A')
                 (A') (A') (A") (A') (A") (A') (A") (A') (A') (A")
                 (A") (A') (A') (A") (A') (A') (A") (A') (A') (A")
                 (A') (A") (A") (A') (A') (A') (A') (A')
 The electronic state of the initial guess is 1-A'.
 Keep R1 ints in memory in symmetry-blocked form, NReq=25194790.
 Requested convergence on RMS density matrix=1.00D-08 within 128 cycles.
 Requested convergence on MAX density matrix=1.00D-06.
 Requested convergence on             energy=1.00D-06.
 No special actions if energy rises.
 SCF Done:  E(RHF) =  -998.160077645     A.U. after   17 cycles
            NFock= 17  Conv=0.59D-08     -V/T= 2.0004
 ExpMin= 3.27D-02 ExpMax= 2.12D+05 ExpMxC= 2.04D+03 IAcc=3 IRadAn=         5 AccDes= 0.00D+00
 HarFok:  IExCor=  205 AccDes= 0.00D+00 IRadAn=         5 IDoV=-2 UseB2=F ITyADJ=14
 ICtDFT= 12500011 ScaDFX=  1.000000  1.000000  1.000000  1.000000
 Range of M.O.s used for correlation:    12   107
 NBasis=   107 NAE=    19 NBE=    19 NFC=    11 NFV=     0
 NROrb=     96 NOA=     8 NOB=     8 NVA=    88 NVB=    88
 Fully direct method using O(ONN) memory.
 JobTyp=1 Pass  1:  I=  12 to  19 NPSUse=  2 ParTrn=T ParDer=T DoDerP=T.
 Spin components of T(2) and E(2):
     alpha-alpha T2 =       0.4277649490D-01 E2=     -0.1023679550D+00
     alpha-beta  T2 =       0.1848600349D+00 E2=     -0.4947588281D+00
     beta-beta   T2 =       0.4277649490D-01 E2=     -0.1023679550D+00
 ANorm=    0.1127126002D+01
 E2 =    -0.6994947380D+00 EUMP2 =    -0.99885957238298D+03
          IDoAtm=111
          Differentiating once with respect to electric field.
                with respect to dipole field.
          Differentiating once with respect to nuclear coordinates.
 Keep R1 ints in memory in symmetry-blocked form, NReq=25195559.
          There are     1 degrees of freedom in the 1st order CPHF.  IDoFFX=0 NUNeed=     1.
 LinEq1:  Iter=  0 NonCon=     1 RMS=1.45D-02 Max=2.17D-01 NDo=     1
 AX will form     1 AO Fock derivatives at one time.
 LinEq1:  Iter=  1 NonCon=     1 RMS=7.57D-03 Max=8.21D-02 NDo=     1
 LinEq1:  Iter=  2 NonCon=     1 RMS=3.68D-03 Max=4.94D-02 NDo=     1
 LinEq1:  Iter=  3 NonCon=     1 RMS=1.66D-03 Max=1.78D-02 NDo=     1
 LinEq1:  Iter=  4 NonCon=     1 RMS=4.01D-04 Max=4.55D-03 NDo=     1
 LinEq1:  Iter=  5 NonCon=     1 RMS=1.29D-04 Max=1.65D-03 NDo=     1
 LinEq1:  Iter=  6 NonCon=     1 RMS=6.72D-05 Max=8.50D-04 NDo=     1
 LinEq1:  Iter=  7 NonCon=     1 RMS=4.14D-05 Max=5.76D-04 NDo=     1
 LinEq1:  Iter=  8 NonCon=     1 RMS=1.47D-05 Max=1.37D-04 NDo=     1
 LinEq1:  Iter=  9 NonCon=     1 RMS=3.32D-06 Max=4.21D-05 NDo=     1
 LinEq1:  Iter= 10 NonCon=     1 RMS=7.73D-07 Max=9.48D-06 NDo=     1
 LinEq1:  Iter= 11 NonCon=     1 RMS=1.84D-07 Max=2.56D-06 NDo=     1
 LinEq1:  Iter= 12 NonCon=     1 RMS=4.31D-08 Max=4.72D-07 NDo=     1
 LinEq1:  Iter= 13 NonCon=     1 RMS=1.16D-08 Max=1.08D-07 NDo=     1
 LinEq1:  Iter= 14 NonCon=     1 RMS=3.84D-09 Max=4.61D-08 NDo=     1
 LinEq1:  Iter= 15 NonCon=     1 RMS=1.10D-09 Max=1.12D-08 NDo=     1
 LinEq1:  Iter= 16 NonCon=     1 RMS=2.35D-10 Max=2.75D-09 NDo=     1
 LinEq1:  Iter= 17 NonCon=     0 RMS=6.03D-11 Max=8.09D-10 NDo=     1
 Linear equations converged to 1.000D-10 1.000D-09 after    17 iterations.
 End of Minotr F.D. properties file   721 does not exist.
 End of Minotr F.D. properties file   722 does not exist.
 End of Minotr F.D. properties file   788 does not exist.

 **********************************************************************

            Population analysis using the SCF Density.

 **********************************************************************

 Orbital symmetries:
       Occupied  (A') (A') (A') (A') (A') (A') (A") (A') (A') (A')
                 (A") (A') (A') (A') (A') (A") (A') (A") (A')
       Virtual   (A') (A") (A') (A') (A') (A") (A") (A') (A") (A')
                 (A") (A') (A') (A') (A') (A') (A') (A") (A") (A')
                 (A') (A') (A") (A') (A") (A') (A') (A') (A") (A')
                 (A') (A") (A') (A') (A") (A') (A") (A") (A') (A')
                 (A') (A") (A') (A') (A") (A") (A') (A') (A') (A")
                 (A') (A") (A') (A') (A") (A') (A") (A') (A') (A')
                 (A') (A') (A") (A') (A") (A') (A") (A') (A') (A")
                 (A") (A') (A') (A") (A') (A') (A") (A') (A') (A")
                 (A') (A") (A") (A') (A') (A') (A') (A')
 The electronic state is 1-A'.
 Alpha  occ. eigenvalues -- -183.39717 -21.57136 -20.51475 -20.49839 -17.93914
 Alpha  occ. eigenvalues --  -17.93785 -17.93751  -2.98507  -1.92807  -1.91568
 Alpha  occ. eigenvalues --   -1.90549  -1.16852  -1.14638  -0.50342  -0.49023
 Alpha  occ. eigenvalues --   -0.45931  -0.43527  -0.42673  -0.40172
 Alpha virt. eigenvalues --   -0.03711   0.04814   0.05398   0.09141   0.12635
 Alpha virt. eigenvalues --    0.14567   0.17238   0.17325   0.17468   0.18813
 Alpha virt. eigenvalues --    0.22430   0.22561   0.25311   0.29667   0.33097
 Alpha virt. eigenvalues --    0.62403   0.63762   0.66513   0.66616   0.69000
 Alpha virt. eigenvalues --    0.73551   0.76614   0.77177   0.78319   0.79321
 Alpha virt. eigenvalues --    0.81481   0.99280   1.00608   1.22618   1.37434
 Alpha virt. eigenvalues --    1.50337   1.52695   1.56186   1.57916   1.58344
 Alpha virt. eigenvalues --    1.59763   1.62946   1.83021   1.88752   1.91796
 Alpha virt. eigenvalues --    2.00263   2.05089   2.07708   2.15367   2.17507
 Alpha virt. eigenvalues --    2.20912   2.28281   2.36389   2.51407   2.52907
 Alpha virt. eigenvalues --    2.61805   2.62243   2.78901   2.82893   3.17966
 Alpha virt. eigenvalues --    3.18576   3.22551   3.28578   3.41945   3.42562
 Alpha virt. eigenvalues --    4.27522   4.46408   5.61474   5.62066   5.62136
 Alpha virt. eigenvalues --    5.63002   5.64429   5.64658   5.65910   5.69108
 Alpha virt. eigenvalues --    5.81166   5.83516   5.85541   5.88281   6.20830
 Alpha virt. eigenvalues --    6.28234   6.79977   6.82372   6.83780   6.83852
 Alpha virt. eigenvalues --    7.05601   7.06373   7.08666   7.16965   7.38981
 Alpha virt. eigenvalues --    7.59678  45.09107  45.14173
          Condensed to atoms (all electrons):
               1          2          3
     1  Ti  19.731536   0.382856   0.368869
     2  O    0.382856   8.393357   0.003934
     3  O    0.368869   0.003934   8.363788
 Mulliken charges:
               1
     1  Ti   1.516739
     2  O   -0.780148
     3  O   -0.736591
 Sum of Mulliken charges =   0.00000
 Mulliken charges with hydrogens summed into heavy atoms:
               1
     1  Ti   1.516739
     2  O   -0.780148
     3  O   -0.736591
 Electronic spatial extent (au):  <R**2>=            195.6999
 Charge=              0.0000 electrons
 Dipole moment (field-independent basis, Debye):
    X=             -0.3288    Y=              8.5080    Z=              0.0000  Tot=              8.5143
 Quadrupole moment (field-independent basis, Debye-Ang):
   XX=            -38.5318   YY=            -22.5507   ZZ=            -22.4071
   XY=              0.6712   XZ=              0.0000   YZ=              0.0000
 Traceless Quadrupole moment (field-independent basis, Debye-Ang):
   XX=            -10.7019   YY=              5.2792   ZZ=              5.4228
   XY=              0.6712   XZ=              0.0000   YZ=              0.0000
 Octapole moment (field-independent basis, Debye-Ang**2):
  XXX=             -1.3261  YYY=             14.9279  ZZZ=              0.0000  XYY=             -0.7347
  XXY=              8.9832  XXZ=              0.0000  XZZ=             -0.3003  YZZ=              4.8164
  YYZ=              0.0000  XYZ=              0.0000
 Hexadecapole moment (field-independent basis, Debye-Ang**3):
 XXXX=           -190.2931 YYYY=            -50.8887 ZZZZ=            -19.9839 XXXY=              3.9439
 XXXZ=              0.0000 YYYX=              3.4180 YYYZ=              0.0000 ZZZX=              0.0000
 ZZZY=              0.0000 XXYY=            -39.7869 XXZZ=            -32.1234 YYZZ=            -11.5273
 XXYZ=              0.0000 YYXZ=              0.0000 ZZXY=              1.0153
 N-N= 1.252923638340D+02 E-N=-2.617559624326D+03  KE= 9.977788292053D+02
 Symmetry A'   KE= 8.963842474663D+02
 Symmetry A"   KE= 1.013945817391D+02
   2 Symmetry operations used in ECPInt.
 ECPInt:  NShTT=     703 NPrTT=    3029 LenC2=     698 LenP2D=    2553.
 LDataN:  DoStor=T MaxTD1= 7 Len=  274
 Calling FoFJK, ICntrl=  10002127 FMM=F ISym2X=1 I1Cent= 0 IOpClX= 0 NMat=1 NMatS=1 NMatT=0.
 ***** Axes restored to original set *****
 -------------------------------------------------------------------
 Center     Atomic                   Forces (Hartrees/Bohr)
 Number     Number              X              Y              Z
 -------------------------------------------------------------------
      1       22          -0.047230175    0.000000000    0.013798550
      2        8           0.000267620    0.000000000    0.001141124
      3        8           0.046962555    0.000000000   -0.014939674
 -------------------------------------------------------------------
 Cartesian Forces:  Max     0.047230175 RMS     0.023216705
 -----------------------------------------------------------------------------------------------
                       Internal Coordinate Forces (Hartree/Bohr or radian)
  Cent   Atom   N1       Length/X         N2         Alpha/Y        N3         Beta/Z          J
 -----------------------------------------------------------------------------------------------
      1  Ti
      2  O        1   0.001141(     1)
      3  O        1   0.049281(     2)      2  -0.000851(     3)
 -----------------------------------------------------------------------------------------------
 Internal  Forces:  Max     0.049280813 RMS     0.028464161

 GradGradGradGradGradGradGradGradGradGradGradGradGradGradGradGradGradGrad
 Berny optimization.
 Search for a local minimum.
 Step number   1 out of a maximum of   20
 All quantities printed in internal units (Hartrees-Bohrs-Radians)
 Second derivative matrix not updated -- first step.
 The second derivative matrix:
                          R1        A1        R2
           R1           0.34754
           A1           0.00000   0.25000
           R2           0.00000   0.00000   0.42469
 ITU=  0
     Eigenvalues ---    0.25000   0.347541000.00000
 RFO step:  Lambda=-6.64569981D-06 EMin= 2.50000000D-01
 Linear search not attempted -- first point.
 Variable       Old X    -DE/DX   Delta X   Delta X   Delta X     New X
                                 (Linear)    (Quad)   (Total)
    R1        3.18127   0.00114   0.00000   0.00328   0.00328   3.18455
    A1        1.88442  -0.00085   0.00000  -0.00341  -0.00341   1.88101
    R2        3.07080   0.04928   0.00000   0.00000   0.00000   3.07080
         Item               Value     Threshold  Converged?
 Maximum Force            0.001141     0.000450     NO 
 RMS     Force            0.001007     0.000300     NO 
 Maximum Displacement     0.003405     0.001800     NO 
 RMS     Displacement     0.002731     0.001200     NO 
 Predicted change in Energy=-3.322850D-06
 GradGradGradGradGradGradGradGradGradGradGradGradGradGradGradGradGradGrad

 ---------------------------------------------------------------------------------------------------
                            Z-MATRIX (ANGSTROMS AND DEGREES)
   CD    Cent   Atom    N1       Length/X        N2       Alpha/Y        N3        Beta/Z          J
 ---------------------------------------------------------------------------------------------------
      1      1  Ti
      2      2  O        1   1.685193(     1)
      3      3  O        1   1.625000(     2)      2  107.774(     3)
 ---------------------------------------------------------------------------------------------------
                         Z-Matrix orientation:                         
 ---------------------------------------------------------------------
 Center     Atomic      Atomic             Coordinates (Angstroms)
 Number     Number       Type             X           Y           Z
 ---------------------------------------------------------------------
      1         22           0        0.000000    0.000000    0.000000
      2          8           0        0.000000    0.000000    1.685193
      3          8           0        1.547435    0.000000   -0.496054
 ---------------------------------------------------------------------
                    Distance matrix (angstroms):
                    1          2          3
     1  Ti   0.000000
     2  O    1.685193   0.000000
     3  O    1.625000   2.674396   0.000000
 Stoichiometry    O2Ti
 Framework group  CS[SG(O2Ti)]
 Deg. of freedom     3
 Full point group                 CS      NOp   2
 Largest Abelian subgroup         CS      NOp   2
 Largest concise Abelian subgroup C1      NOp   1
                         Standard orientation:                         
 ---------------------------------------------------------------------
 Center     Atomic      Atomic             Coordinates (Angstroms)
 Number     Number       Type             X           Y           Z
 ---------------------------------------------------------------------
      1         22           0        0.000000    0.410856    0.000000
      2          8           0        1.336223   -0.615975    0.000000
      3          8           0       -1.336223   -0.513878    0.000000
 ---------------------------------------------------------------------
 Rotational constants (GHZ):          27.7211591           8.8291167           6.6963475
 Standard basis: def2TZVP (5D, 7F)
 There are    86 symmetry adapted cartesian basis functions of A'  symmetry.
 There are    38 symmetry adapted cartesian basis functions of A"  symmetry.
 There are    72 symmetry adapted basis functions of A'  symmetry.
 There are    35 symmetry adapted basis functions of A"  symmetry.
   107 basis functions,   204 primitive gaussians,   124 cartesian basis functions
    19 alpha electrons       19 beta electrons
       nuclear repulsion energy       125.2443022294 Hartrees.
 NAtoms=    3 NActive=    3 NUniq=    3 SFac= 1.00D+00 NAtFMM=   60 NAOKFM=F Big=F
 Integral buffers will be    131072 words long.
 Raffenetti 1 integral format.
 Two-electron integral symmetry is turned on.
 One-electron integrals computed using PRISM.
   2 Symmetry operations used in ECPInt.
 ECPInt:  NShTT=     703 NPrTT=    3029 LenC2=     698 LenP2D=    2552.
 LDataN:  DoStor=T MaxTD1= 6 Len=  172
 NBasis=   107 RedAO= T EigKep=  3.37D-03  NBF=    72    35
 NBsUse=   107 1.00D-06 EigRej= -1.00D+00 NBFU=    72    35
 Initial guess from the checkpoint file:  "TiO21aHigher1.7.chk"
 B after Tr=     0.000000    0.000000    0.000000
         Rot=    1.000000    0.000000    0.000000    0.000398 Ang=   0.05 deg.
 Initial guess orbital symmetries:
       Occupied  (A') (A') (A') (A') (A') (A') (A") (A') (A') (A')
                 (A") (A') (A') (A') (A') (A") (A') (A") (A')
       Virtual   (A') (A") (A') (A') (A') (A") (A") (A') (A") (A')
                 (A") (A') (A') (A') (A') (A') (A') (A") (A") (A')
                 (A') (A') (A") (A') (A") (A') (A') (A') (A") (A')
                 (A') (A") (A') (A') (A") (A') (A") (A") (A') (A')
                 (A') (A") (A') (A') (A") (A") (A') (A') (A') (A")
                 (A') (A") (A') (A') (A") (A') (A") (A') (A') (A')
                 (A') (A') (A") (A') (A") (A') (A") (A') (A') (A")
                 (A") (A') (A') (A") (A') (A') (A") (A') (A') (A")
                 (A') (A") (A") (A') (A') (A') (A') (A')
 Keep R1 ints in memory in symmetry-blocked form, NReq=25194790.
 Requested convergence on RMS density matrix=1.00D-08 within 128 cycles.
 Requested convergence on MAX density matrix=1.00D-06.
 Requested convergence on             energy=1.00D-06.
 No special actions if energy rises.
 SCF Done:  E(RHF) =  -998.159662234     A.U. after   12 cycles
            NFock= 12  Conv=0.78D-08     -V/T= 2.0004
 ExpMin= 3.27D-02 ExpMax= 2.12D+05 ExpMxC= 2.04D+03 IAcc=3 IRadAn=         5 AccDes= 0.00D+00
 HarFok:  IExCor=  205 AccDes= 0.00D+00 IRadAn=         5 IDoV=-2 UseB2=F ITyADJ=14
 ICtDFT= 12500011 ScaDFX=  1.000000  1.000000  1.000000  1.000000
 Range of M.O.s used for correlation:    12   107
 NBasis=   107 NAE=    19 NBE=    19 NFC=    11 NFV=     0
 NROrb=     96 NOA=     8 NOB=     8 NVA=    88 NVB=    88
 Fully direct method using O(ONN) memory.
 JobTyp=1 Pass  1:  I=  12 to  19 NPSUse=  2 ParTrn=T ParDer=T DoDerP=T.
 Spin components of T(2) and E(2):
     alpha-alpha T2 =       0.4285409723D-01 E2=     -0.1024361050D+00
     alpha-beta  T2 =       0.1851739207D+00 E2=     -0.4950409360D+00
     beta-beta   T2 =       0.4285409723D-01 E2=     -0.1024361050D+00
 ANorm=    0.1127334074D+01
 E2 =    -0.6999131460D+00 EUMP2 =    -0.99885957538018D+03
          IDoAtm=111
          Differentiating once with respect to electric field.
                with respect to dipole field.
          Differentiating once with respect to nuclear coordinates.
 Keep R1 ints in memory in symmetry-blocked form, NReq=25195559.
          There are     1 degrees of freedom in the 1st order CPHF.  IDoFFX=0 NUNeed=     1.
 LinEq1:  Iter=  0 NonCon=     1 RMS=1.45D-02 Max=2.17D-01 NDo=     1
 AX will form     1 AO Fock derivatives at one time.
 LinEq1:  Iter=  1 NonCon=     1 RMS=7.60D-03 Max=8.21D-02 NDo=     1
 LinEq1:  Iter=  2 NonCon=     1 RMS=3.70D-03 Max=4.95D-02 NDo=     1
 LinEq1:  Iter=  3 NonCon=     1 RMS=1.67D-03 Max=1.79D-02 NDo=     1
 LinEq1:  Iter=  4 NonCon=     1 RMS=4.05D-04 Max=4.57D-03 NDo=     1
 LinEq1:  Iter=  5 NonCon=     1 RMS=1.30D-04 Max=1.68D-03 NDo=     1
 LinEq1:  Iter=  6 NonCon=     1 RMS=6.88D-05 Max=8.73D-04 NDo=     1
 LinEq1:  Iter=  7 NonCon=     1 RMS=4.21D-05 Max=5.87D-04 NDo=     1
 LinEq1:  Iter=  8 NonCon=     1 RMS=1.48D-05 Max=1.39D-04 NDo=     1
 LinEq1:  Iter=  9 NonCon=     1 RMS=3.36D-06 Max=4.25D-05 NDo=     1
 LinEq1:  Iter= 10 NonCon=     1 RMS=7.82D-07 Max=9.54D-06 NDo=     1
 LinEq1:  Iter= 11 NonCon=     1 RMS=1.86D-07 Max=2.60D-06 NDo=     1
 LinEq1:  Iter= 12 NonCon=     1 RMS=4.39D-08 Max=4.76D-07 NDo=     1
 LinEq1:  Iter= 13 NonCon=     1 RMS=1.19D-08 Max=1.09D-07 NDo=     1
 LinEq1:  Iter= 14 NonCon=     1 RMS=3.97D-09 Max=4.77D-08 NDo=     1
 LinEq1:  Iter= 15 NonCon=     1 RMS=1.13D-09 Max=1.19D-08 NDo=     1
 LinEq1:  Iter= 16 NonCon=     1 RMS=2.41D-10 Max=2.77D-09 NDo=     1
 LinEq1:  Iter= 17 NonCon=     0 RMS=6.15D-11 Max=8.26D-10 NDo=     1
 Linear equations converged to 1.000D-10 1.000D-09 after    17 iterations.
 End of Minotr F.D. properties file   721 does not exist.
 End of Minotr F.D. properties file   722 does not exist.
 End of Minotr F.D. properties file   788 does not exist.
   2 Symmetry operations used in ECPInt.
 ECPInt:  NShTT=     703 NPrTT=    3029 LenC2=     698 LenP2D=    2552.
 LDataN:  DoStor=T MaxTD1= 7 Len=  274
 Calling FoFJK, ICntrl=  10002127 FMM=F ISym2X=1 I1Cent= 0 IOpClX= 0 NMat=1 NMatS=1 NMatT=0.
 ***** Axes restored to original set *****
 -------------------------------------------------------------------
 Center     Atomic                   Forces (Hartrees/Bohr)
 Number     Number              X              Y              Z
 -------------------------------------------------------------------
      1       22          -0.046844538    0.000000000    0.015184175
      2        8          -0.000010343    0.000000000   -0.000152851
      3        8           0.046854881    0.000000000   -0.015031323
 -------------------------------------------------------------------
 Cartesian Forces:  Max     0.046854881 RMS     0.023205157
 -----------------------------------------------------------------------------------------------
                       Internal Coordinate Forces (Hartree/Bohr or radian)
  Cent   Atom   N1       Length/X         N2         Alpha/Y        N3         Beta/Z          J
 -----------------------------------------------------------------------------------------------
      1  Ti
      2  O        1  -0.000153(     1)
      3  O        1   0.049207(     2)      2   0.000033(     3)
 -----------------------------------------------------------------------------------------------
 Internal  Forces:  Max     0.049206914 RMS     0.028409769

 GradGradGradGradGradGradGradGradGradGradGradGradGradGradGradGradGradGrad
 Berny optimization.
 Search for a local minimum.
 Step number   2 out of a maximum of   20
 All quantities printed in internal units (Hartrees-Bohrs-Radians)
 Update second derivatives using D2CorN and points    1    2
 DE= -3.00D-06 DEPred=-3.32D-06 R= 9.02D-01
 TightC=F SS=  1.41D+00  RLast= 4.73D-03 DXNew= 5.0454D-01 1.4191D-02
 Trust test= 9.02D-01 RLast= 4.73D-03 DXMaxT set to 3.00D-01
 The second derivative matrix:
                          R1        A1        R2
           R1           0.36997
           A1          -0.01405   0.25502
           R2           0.00542  -0.00562   0.42469
 ITU=  1  0
     Eigenvalues ---    0.25332   0.371661000.00000
 RFO step:  Lambda=-1.23685005D-08 EMin= 2.53324211D-01
 Quartic linear search produced a step of -0.08579.
 Variable       Old X    -DE/DX   Delta X   Delta X   Delta X     New X
                                 (Linear)    (Quad)   (Total)
    R1        3.18455  -0.00015  -0.00028  -0.00012  -0.00040   3.18415
    A1        1.88101   0.00003   0.00029  -0.00017   0.00012   1.88113
    R2        3.07080   0.04921   0.00000   0.00000   0.00000   3.07080
         Item               Value     Threshold  Converged?
 Maximum Force            0.000153     0.000450     YES
 RMS     Force            0.000111     0.000300     YES
 Maximum Displacement     0.000405     0.001800     YES
 RMS     Displacement     0.000244     0.001200     YES
 Predicted change in Energy=-3.298838D-08
 Optimization completed.
    -- Stationary point found.
                       ----------------------------
                       !   Optimized Parameters   !
                       ! (Angstroms and Degrees)  !
 ----------------------                            ----------------------
 !      Name          Value   Derivative information (Atomic Units)     !
 ------------------------------------------------------------------------
 !       R1          1.6852   -DE/DX =   -0.0002                        !
 !       A1        107.7741   -DE/DX =    0.0                           !
 !       R2          1.625    -DE/DX =    0.0492                        !
 ------------------------------------------------------------------------
 GradGradGradGradGradGradGradGradGradGradGradGradGradGradGradGradGradGrad

 ---------------------------------------------------------------------------------------------------
                            Z-MATRIX (ANGSTROMS AND DEGREES)
   CD    Cent   Atom    N1       Length/X        N2       Alpha/Y        N3        Beta/Z          J
 ---------------------------------------------------------------------------------------------------
      1      1  Ti
      2      2  O        1   1.685193(     1)
      3      3  O        1   1.625000(     2)      2  107.774(     3)
 ---------------------------------------------------------------------------------------------------
                         Z-Matrix orientation:                         
 ---------------------------------------------------------------------
 Center     Atomic      Atomic             Coordinates (Angstroms)
 Number     Number       Type             X           Y           Z
 ---------------------------------------------------------------------
      1         22           0        0.000000    0.000000    0.000000
      2          8           0        0.000000    0.000000    1.685193
      3          8           0        1.547435    0.000000   -0.496054
 ---------------------------------------------------------------------
                    Distance matrix (angstroms):
                    1          2          3
     1  Ti   0.000000
     2  O    1.685193   0.000000
     3  O    1.625000   2.674396   0.000000
 Stoichiometry    O2Ti
 Framework group  CS[SG(O2Ti)]
 Deg. of freedom     3
 Full point group                 CS      NOp   2
 Largest Abelian subgroup         CS      NOp   2
 Largest concise Abelian subgroup C1      NOp   1
                         Standard orientation:                         
 ---------------------------------------------------------------------
 Center     Atomic      Atomic             Coordinates (Angstroms)
 Number     Number       Type             X           Y           Z
 ---------------------------------------------------------------------
      1         22           0        0.000000    0.410856    0.000000
      2          8           0        1.336223   -0.615975    0.000000
      3          8           0       -1.336223   -0.513878    0.000000
 ---------------------------------------------------------------------
 Rotational constants (GHZ):          27.7211591           8.8291167           6.6963475

 **********************************************************************

            Population analysis using the SCF Density.

 **********************************************************************

 Orbital symmetries:
       Occupied  (A') (A') (A') (A') (A') (A') (A") (A') (A') (A')
                 (A") (A') (A') (A') (A') (A") (A') (A") (A')
       Virtual   (A') (A") (A') (A') (A') (A") (A") (A') (A") (A')
                 (A") (A') (A') (A') (A') (A') (A') (A") (A") (A')
                 (A') (A') (A") (A') (A") (A') (A') (A') (A") (A')
                 (A') (A") (A') (A') (A") (A') (A") (A") (A') (A')
                 (A') (A") (A') (A') (A") (A") (A') (A') (A') (A")
                 (A') (A") (A') (A') (A") (A') (A") (A') (A') (A')
                 (A') (A') (A") (A') (A") (A') (A") (A') (A') (A")
                 (A") (A') (A') (A") (A') (A') (A") (A') (A') (A")
                 (A') (A") (A") (A') (A') (A') (A') (A')
 The electronic state is 1-A'.
 Alpha  occ. eigenvalues -- -183.39754 -21.57168 -20.51500 -20.49818 -17.93947
 Alpha  occ. eigenvalues --  -17.93818 -17.93784  -2.98526  -1.92820  -1.91570
 Alpha  occ. eigenvalues --   -1.90569  -1.16855  -1.14612  -0.50320  -0.49013
 Alpha  occ. eigenvalues --   -0.45935  -0.43517  -0.42617  -0.40136
 Alpha virt. eigenvalues --   -0.03722   0.04801   0.05386   0.09110   0.12633
 Alpha virt. eigenvalues --    0.14519   0.17228   0.17318   0.17462   0.18799
 Alpha virt. eigenvalues --    0.22433   0.22547   0.25246   0.29670   0.33108
 Alpha virt. eigenvalues --    0.62375   0.63754   0.66507   0.66606   0.68975
 Alpha virt. eigenvalues --    0.73543   0.76633   0.77182   0.78324   0.79334
 Alpha virt. eigenvalues --    0.81465   0.99280   1.00618   1.22607   1.37464
 Alpha virt. eigenvalues --    1.50271   1.52683   1.56138   1.57933   1.58322
 Alpha virt. eigenvalues --    1.59742   1.62920   1.83017   1.88824   1.91782
 Alpha virt. eigenvalues --    2.00193   2.05089   2.07574   2.15397   2.17517
 Alpha virt. eigenvalues --    2.20839   2.28198   2.36346   2.51198   2.52837
 Alpha virt. eigenvalues --    2.61807   2.62179   2.78826   2.82862   3.17956
 Alpha virt. eigenvalues --    3.18443   3.22502   3.28658   3.41930   3.42566
 Alpha virt. eigenvalues --    4.27267   4.46290   5.61481   5.62059   5.62123
 Alpha virt. eigenvalues --    5.62995   5.64480   5.64706   5.65917   5.69116
 Alpha virt. eigenvalues --    5.81110   5.83559   5.85390   5.88227   6.20536
 Alpha virt. eigenvalues --    6.28246   6.79978   6.82357   6.83813   6.83845
 Alpha virt. eigenvalues --    7.05486   7.06327   7.08630   7.16958   7.38954
 Alpha virt. eigenvalues --    7.59634  45.08968  45.14129
          Condensed to atoms (all electrons):
               1          2          3
     1  Ti  19.731570   0.383432   0.369082
     2  O    0.383432   8.393295   0.003615
     3  O    0.369082   0.003615   8.362878
 Mulliken charges:
               1
     1  Ti   1.515917
     2  O   -0.780342
     3  O   -0.735575
 Sum of Mulliken charges =   0.00000
 Mulliken charges with hydrogens summed into heavy atoms:
               1
     1  Ti   1.515917
     2  O   -0.780342
     3  O   -0.735575
 Electronic spatial extent (au):  <R**2>=            195.7272
 Charge=              0.0000 electrons
 Dipole moment (field-independent basis, Debye):
    X=             -0.3378    Y=              8.5259    Z=              0.0000  Tot=              8.5326
 Quadrupole moment (field-independent basis, Debye-Ang):
   XX=            -38.5143   YY=            -22.5531   ZZ=            -22.4110
   XY=              0.6894   XZ=              0.0000   YZ=              0.0000
 Traceless Quadrupole moment (field-independent basis, Debye-Ang):
   XX=            -10.6882   YY=              5.2730   ZZ=              5.4151
   XY=              0.6894   XZ=              0.0000   YZ=              0.0000
 Octapole moment (field-independent basis, Debye-Ang**2):
  XXX=             -1.3627  YYY=             14.9658  ZZZ=              0.0000  XYY=             -0.7559
  XXY=              8.9948  XXZ=              0.0000  XZZ=             -0.3087  YZZ=              4.8275
  YYZ=              0.0000  XYZ=              0.0000
 Hexadecapole moment (field-independent basis, Debye-Ang**3):
 XXXX=           -190.0517 YYYY=            -51.0936 ZZZZ=            -19.9944 XXXY=              4.0497
 XXXZ=              0.0000 YYYX=              3.5115 YYYZ=              0.0000 ZZZX=              0.0000
 ZZZY=              0.0000 XXYY=            -39.7953 XXZZ=            -32.0944 YYZZ=            -11.5610
 XXYZ=              0.0000 YYXZ=              0.0000 ZZXY=              1.0428
 N-N= 1.252443022294D+02 E-N=-2.617454946686D+03  KE= 9.977725880572D+02
 Symmetry A'   KE= 8.963783682530D+02
 Symmetry A"   KE= 1.013942198042D+02
 1|1|UNPC-DESKTOP-F4NP0R6|POpt|RMP2-FC|def2TZVP|O2Ti1|GARRETT|22-Jul-20
 18|1||# MP2 Def2TZVP opt=(noeigen,z-matrix) freq||TiO21a1||0,1|Ti|O,1,
 R1|O,1,R2,2,A1||R1=1.68519263|A1=107.77405717|R2=1.625||Version=EM64W-
 G16RevB.01|State=1-A'|HF=-998.1596622|MP2=-998.8595754|RMSD=7.790e-009
 |RMSF=2.321e-002|Dipole=-1.9833891,0.,-1.616302|PG=CS [SG(O2Ti1)]||@


 HE THAT RISETH LATE MUST TROT ALL DAY.

                  -- BENJAMIN FRANKLIN
 Job cpu time:       0 days  0 hours  0 minutes 50.0 seconds.
 Elapsed time:       0 days  0 hours  0 minutes 38.2 seconds.
 File lengths (MBytes):  RWF=     10 Int=      0 D2E=      0 Chk=      2 Scr=      1
 Normal termination of Gaussian 16 at Sun Jul 22 14:47:41 2018.
 Link1:  Proceeding to internal job step number  2.
 ----------------------------------------------------------------------
 #N Geom=AllCheck Guess=TCheck SCRF=Check GenChk RMP2(FC)/def2TZVP Freq
 ----------------------------------------------------------------------
 1/10=4,11=1,29=7,30=1,38=1,40=1/1,3;
 2/12=2,40=1/2;
 3/5=44,7=101,11=1,14=-4,25=1,30=1,70=2,71=2,116=1,140=1/1,2,3;
 4/5=101/1;
 5/5=2,38=6,98=1/2;
 8/6=3,8=1,10=1,19=11,30=-1/1;
 9/15=3,16=-3/6;
 11/6=1,8=1,15=11,17=12,24=-1,27=1,28=-2,29=300,32=6,42=3/1,2,10;
 10/6=2,21=1/2;
 8/6=4,8=1,10=1,19=11,30=-1/11,4;
 10/5=1,20=4/2;
 11/12=2,14=11,16=1,17=2,28=-2,42=3,76=2/2,10,12;
 6/7=2,8=2,9=2,10=2/1;
 7/8=1,10=1,12=2,25=1,44=2/1,2,3,16;
 1/10=4,11=1,30=1/3;
 99//99;
 Structure from the checkpoint file:  "TiO21aHigher1.7.chk"
 -------
 TiO21a1
 -------
 Charge =  0 Multiplicity = 1
 Z-Matrix found in chk file.
 Ti
 O,1,R1
 O,1,R2,2,A1
      Variables:
 R1=1.68519263
 A1=107.77405717
      Constants:
 R2=1.625
 Recover connectivity data from disk.

 GradGradGradGradGradGradGradGradGradGradGradGradGradGradGradGradGradGrad
 Berny optimization.
 Initialization pass.
                       ----------------------------
                       !    Initial Parameters    !
                       ! (Angstroms and Degrees)  !
 ----------------------                            ----------------------
 !      Name          Value   Derivative information (Atomic Units)     !
 ------------------------------------------------------------------------
 !       R1          1.6852   calculate D2E/DX2 analytically            !
 !       A1        107.7741   calculate D2E/DX2 analytically            !
 !       R2          1.625    frozen, calculate D2E/DX2 analytically    !
 ------------------------------------------------------------------------
 Trust Radius=3.00D-01 FncErr=1.00D-07 GrdErr=1.00D-07 EigMax=2.50D+02 EigMin=1.00D-04
 Number of steps in this run=      2 maximum allowed number of steps=      2.
 GradGradGradGradGradGradGradGradGradGradGradGradGradGradGradGradGradGrad

                          Input orientation:                          
 ---------------------------------------------------------------------
 Center     Atomic      Atomic             Coordinates (Angstroms)
 Number     Number       Type             X           Y           Z
 ---------------------------------------------------------------------
      1         22           0        0.000000    0.000000    0.000000
      2          8           0        0.000000    0.000000    1.685193
      3          8           0        1.547435    0.000000   -0.496054
 ---------------------------------------------------------------------
                    Distance matrix (angstroms):
                    1          2          3
     1  Ti   0.000000
     2  O    1.685193   0.000000
     3  O    1.625000   2.674396   0.000000
 Stoichiometry    O2Ti
 Framework group  CS[SG(O2Ti)]
 Deg. of freedom     3
 Full point group                 CS      NOp   2
 Largest Abelian subgroup         CS      NOp   2
 Largest concise Abelian subgroup C1      NOp   1
                         Standard orientation:                         
 ---------------------------------------------------------------------
 Center     Atomic      Atomic             Coordinates (Angstroms)
 Number     Number       Type             X           Y           Z
 ---------------------------------------------------------------------
      1         22           0        0.000000    0.410856    0.000000
      2          8           0        1.336223   -0.615975    0.000000
      3          8           0       -1.336223   -0.513878    0.000000
 ---------------------------------------------------------------------
 Rotational constants (GHZ):          27.7211591           8.8291167           6.6963475
 Standard basis: def2TZVP (5D, 7F)
 There are    86 symmetry adapted cartesian basis functions of A'  symmetry.
 There are    38 symmetry adapted cartesian basis functions of A"  symmetry.
 There are    72 symmetry adapted basis functions of A'  symmetry.
 There are    35 symmetry adapted basis functions of A"  symmetry.
   107 basis functions,   204 primitive gaussians,   124 cartesian basis functions
    19 alpha electrons       19 beta electrons
       nuclear repulsion energy       125.2443022294 Hartrees.
 NAtoms=    3 NActive=    3 NUniq=    3 SFac= 1.00D+00 NAtFMM=   60 NAOKFM=F Big=F
 Integral buffers will be    131072 words long.
 Raffenetti 1 integral format.
 Two-electron integral symmetry is turned on.
 One-electron integrals computed using PRISM.
   2 Symmetry operations used in ECPInt.
 ECPInt:  NShTT=     703 NPrTT=    3029 LenC2=     698 LenP2D=    2552.
 LDataN:  DoStor=T MaxTD1= 6 Len=  172
 NBasis=   107 RedAO= T EigKep=  3.37D-03  NBF=    72    35
 NBsUse=   107 1.00D-06 EigRej= -1.00D+00 NBFU=    72    35
 Initial guess from the checkpoint file:  "TiO21aHigher1.7.chk"
 B after Tr=     0.000000    0.000000    0.000000
         Rot=    1.000000    0.000000    0.000000    0.000000 Ang=   0.00 deg.
 Initial guess orbital symmetries:
       Occupied  (A') (A') (A') (A') (A') (A') (A") (A') (A') (A')
                 (A") (A') (A') (A') (A') (A") (A') (A") (A')
       Virtual   (A') (A") (A') (A') (A') (A") (A") (A') (A") (A')
                 (A") (A') (A') (A') (A') (A') (A') (A") (A") (A')
                 (A') (A') (A") (A') (A") (A') (A') (A') (A") (A')
                 (A') (A") (A') (A') (A") (A') (A") (A") (A') (A')
                 (A') (A") (A') (A') (A") (A") (A') (A') (A') (A")
                 (A') (A") (A') (A') (A") (A') (A") (A') (A') (A')
                 (A') (A') (A") (A') (A") (A') (A") (A') (A') (A")
                 (A") (A') (A') (A") (A') (A') (A") (A') (A') (A")
                 (A') (A") (A") (A') (A') (A') (A') (A')
 Keep R1 ints in memory in symmetry-blocked form, NReq=25194790.
 Requested convergence on RMS density matrix=1.00D-08 within 128 cycles.
 Requested convergence on MAX density matrix=1.00D-06.
 Requested convergence on             energy=1.00D-06.
 No special actions if energy rises.
 SCF Done:  E(RHF) =  -998.159662234     A.U. after    1 cycles
            NFock=  1  Conv=0.14D-08     -V/T= 2.0004
 ExpMin= 3.27D-02 ExpMax= 2.12D+05 ExpMxC= 2.04D+03 IAcc=3 IRadAn=         5 AccDes= 0.00D+00
 HarFok:  IExCor=  205 AccDes= 0.00D+00 IRadAn=         5 IDoV=-2 UseB2=F ITyADJ=14
 ICtDFT= 12500011 ScaDFX=  1.000000  1.000000  1.000000  1.000000
 Range of M.O.s used for correlation:    12   107
 NBasis=   107 NAE=    19 NBE=    19 NFC=    11 NFV=     0
 NROrb=     96 NOA=     8 NOB=     8 NVA=    88 NVB=    88
 Disk-based method using ON**2 memory for  8 occupieds at a time.
 Permanent disk used for amplitudes=     3450172 words.
 Estimated scratch disk usage=    28507361 words.
 Actual    scratch disk usage=    27760865 words.
 JobTyp=1 Pass  1:  I=  12 to  19 NPSUse=  2 ParTrn=T ParDer=T DoDerP=T.
 (rs|ai) integrals will be sorted in core.
 Spin components of T(2) and E(2):
     alpha-alpha T2 =       0.4285409820D-01 E2=     -0.1024361062D+00
     alpha-beta  T2 =       0.1851739229D+00 E2=     -0.4950409378D+00
     beta-beta   T2 =       0.4285409820D-01 E2=     -0.1024361062D+00
 ANorm=    0.1127334076D+01
 E2 =    -0.6999131503D+00 EUMP2 =    -0.99885957538449D+03
   2 Symmetry operations used in ECPInt.
 ECPInt:  NShTT=     703 NPrTT=    3029 LenC2=     698 LenP2D=    2552.
 LDataN:  DoStor=T MaxTD1= 7 Len=  274
 G2DrvN: will do     4 centers at a time, making    1 passes.
 Calling FoFCou, ICntrl=  3107 FMM=F I1Cent=   0 AccDes= 0.00D+00.
 End of G2Drv F.D. properties file   721 does not exist.
 End of G2Drv F.D. properties file   722 does not exist.
 End of G2Drv F.D. properties file   788 does not exist.
          IDoAtm=111
          Differentiating once with respect to electric field.
                with respect to dipole field.
          Differentiating once with respect to nuclear coordinates.
 Keep R1 ints in memory in symmetry-blocked form, NReq=25195559.
          There are    12 degrees of freedom in the 1st order CPHF.  IDoFFX=6 NUNeed=    12.
      9 vectors produced by pass  0 Test12= 1.39D-14 8.33D-09 XBig12= 1.56D+01 1.35D+00.
 AX will form     9 AO Fock derivatives at one time.
      9 vectors produced by pass  1 Test12= 1.39D-14 8.33D-09 XBig12= 4.34D+00 6.51D-01.
      9 vectors produced by pass  2 Test12= 1.39D-14 8.33D-09 XBig12= 3.43D-01 1.58D-01.
      9 vectors produced by pass  3 Test12= 1.39D-14 8.33D-09 XBig12= 2.45D-02 6.74D-02.
      9 vectors produced by pass  4 Test12= 1.39D-14 8.33D-09 XBig12= 8.99D-04 8.04D-03.
      9 vectors produced by pass  5 Test12= 1.39D-14 8.33D-09 XBig12= 2.77D-05 1.78D-03.
      9 vectors produced by pass  6 Test12= 1.39D-14 8.33D-09 XBig12= 7.17D-07 2.58D-04.
      9 vectors produced by pass  7 Test12= 1.39D-14 8.33D-09 XBig12= 9.14D-09 2.19D-05.
      9 vectors produced by pass  8 Test12= 1.39D-14 8.33D-09 XBig12= 1.20D-10 4.94D-06.
      5 vectors produced by pass  9 Test12= 1.39D-14 8.33D-09 XBig12= 2.81D-12 7.44D-07.
      3 vectors produced by pass 10 Test12= 1.39D-14 8.33D-09 XBig12= 3.63D-14 3.98D-08.
 InvSVY:  IOpt=1 It=  1 EMax= 8.88D-16
 Solved reduced A of dimension    89 with     9 vectors.
 End of Minotr F.D. properties file   721 does not exist.
 End of Minotr F.D. properties file   722 does not exist.
 End of Minotr F.D. properties file   788 does not exist.
 MDV=   536870912.
 Form MO integral derivatives with frozen-active canonical formalism.
 Discarding MO integrals.
 Reordered first order wavefunction length =      5591168
 In DefCFB: NBatch=  1 ICI= 19 ICA= 88 LFMax= 44
            Large arrays: LIAPS=    88736384 LIARS=    75467392 words.
 Semi-Direct transformation.
 ModeAB=           2 MOrb=            19 LenV=     536407191
 LASXX=     10151206 LTotXX=    10151206 LenRXX=    10151206
 LTotAB=    10440956 MaxLAS=    15755750 LenRXY=    15755750
 NonZer=    20302412 LenScr=    31232000 LnRSAI=           0
 LnScr1=           0 LExtra=           0 Total=     57138956
 MaxDsk=          -1 SrtSym=           F ITran=            4
 JobTyp=0 Pass  1:  I=   1 to  19.
 (rs|ai) integrals will be sorted in core.
 Spin components of T(2) and E(2):
     alpha-alpha T2 =       0.4285409820D-01 E2=     -0.1024361062D+00
     alpha-beta  T2 =       0.1851739229D+00 E2=     -0.4950409378D+00
     beta-beta   T2 =       0.4285409820D-01 E2=     -0.1024361062D+00
 ANorm=    0.1594291140D+01
 E2 =    -0.6999131503D+00 EUMP2 =    -0.99885957538449D+03
          IDoAtm=111
          Differentiating once with respect to electric field.
                with respect to dipole field.
          Differentiating once with respect to nuclear coordinates.
          There are     1 degrees of freedom in the 1st order CPHF.  IDoFFX=0 NUNeed=     1.
 LinEq1:  Iter=  0 NonCon=     1 RMS=1.45D-02 Max=2.17D-01 NDo=     1
 LinEq1:  Iter=  1 NonCon=     1 RMS=7.60D-03 Max=8.21D-02 NDo=     1
 LinEq1:  Iter=  2 NonCon=     1 RMS=3.70D-03 Max=4.95D-02 NDo=     1
 LinEq1:  Iter=  3 NonCon=     1 RMS=1.67D-03 Max=1.79D-02 NDo=     1
 LinEq1:  Iter=  4 NonCon=     1 RMS=4.05D-04 Max=4.57D-03 NDo=     1
 LinEq1:  Iter=  5 NonCon=     1 RMS=1.30D-04 Max=1.68D-03 NDo=     1
 LinEq1:  Iter=  6 NonCon=     1 RMS=6.88D-05 Max=8.73D-04 NDo=     1
 LinEq1:  Iter=  7 NonCon=     1 RMS=4.21D-05 Max=5.87D-04 NDo=     1
 LinEq1:  Iter=  8 NonCon=     1 RMS=1.48D-05 Max=1.39D-04 NDo=     1
 LinEq1:  Iter=  9 NonCon=     1 RMS=3.36D-06 Max=4.25D-05 NDo=     1
 LinEq1:  Iter= 10 NonCon=     1 RMS=7.82D-07 Max=9.54D-06 NDo=     1
 LinEq1:  Iter= 11 NonCon=     1 RMS=1.86D-07 Max=2.60D-06 NDo=     1
 LinEq1:  Iter= 12 NonCon=     1 RMS=4.39D-08 Max=4.76D-07 NDo=     1
 LinEq1:  Iter= 13 NonCon=     1 RMS=1.19D-08 Max=1.09D-07 NDo=     1
 LinEq1:  Iter= 14 NonCon=     1 RMS=3.97D-09 Max=4.77D-08 NDo=     1
 LinEq1:  Iter= 15 NonCon=     1 RMS=1.13D-09 Max=1.19D-08 NDo=     1
 LinEq1:  Iter= 16 NonCon=     1 RMS=2.41D-10 Max=2.77D-09 NDo=     1
 LinEq1:  Iter= 17 NonCon=     0 RMS=6.15D-11 Max=8.26D-10 NDo=     1
 Linear equations converged to 1.000D-10 1.000D-09 after    17 iterations.
 End of Minotr F.D. properties file   721 does not exist.
 End of Minotr F.D. properties file   722 does not exist.
 End of Minotr F.D. properties file   788 does not exist.
 Symmetrizing basis deriv contribution to polar:
 IMax=3 JMax=2 DiffMx= 0.00D+00
 G2DrvN: will do     4 centers at a time, making    1 passes.
 Calling FoFCou, ICntrl=  3107 FMM=F I1Cent=   0 AccDes= 0.00D+00.
 End of G2Drv F.D. properties file   721 does not exist.
 End of G2Drv F.D. properties file   722 does not exist.
 End of G2Drv F.D. properties file   788 does not exist.
 R2 and R3 integrals will be kept in memory, NReq=    62010250.
 DD1Dir will call FoFMem   1 times, MxPair=       380
 NAB=   190 NAA=     0 NBB=     0.
 Discarding MO integrals.

 **********************************************************************

            Population analysis using the SCF Density.

 **********************************************************************

 Orbital symmetries:
       Occupied  (A') (A') (A') (A') (A') (A') (A") (A') (A') (A')
                 (A") (A') (A') (A') (A') (A") (A') (A") (A')
       Virtual   (A') (A") (A') (A') (A') (A") (A") (A') (A") (A')
                 (A") (A') (A') (A') (A') (A') (A') (A") (A") (A')
                 (A') (A') (A") (A') (A") (A') (A') (A') (A") (A')
                 (A') (A") (A') (A') (A") (A') (A") (A") (A') (A')
                 (A') (A") (A') (A') (A") (A") (A') (A') (A') (A")
                 (A') (A") (A') (A') (A") (A') (A") (A') (A') (A')
                 (A') (A') (A") (A') (A") (A') (A") (A') (A') (A")
                 (A") (A') (A') (A") (A') (A') (A") (A') (A') (A")
                 (A') (A") (A") (A') (A') (A') (A') (A')
 The electronic state is 1-A'.
 Alpha  occ. eigenvalues -- -183.39754 -21.57168 -20.51500 -20.49818 -17.93947
 Alpha  occ. eigenvalues --  -17.93818 -17.93784  -2.98526  -1.92820  -1.91570
 Alpha  occ. eigenvalues --   -1.90569  -1.16855  -1.14612  -0.50320  -0.49013
 Alpha  occ. eigenvalues --   -0.45935  -0.43517  -0.42617  -0.40136
 Alpha virt. eigenvalues --   -0.03722   0.04801   0.05386   0.09110   0.12633
 Alpha virt. eigenvalues --    0.14519   0.17228   0.17318   0.17462   0.18799
 Alpha virt. eigenvalues --    0.22433   0.22547   0.25246   0.29670   0.33108
 Alpha virt. eigenvalues --    0.62375   0.63754   0.66507   0.66606   0.68975
 Alpha virt. eigenvalues --    0.73543   0.76633   0.77182   0.78324   0.79334
 Alpha virt. eigenvalues --    0.81465   0.99280   1.00618   1.22607   1.37464
 Alpha virt. eigenvalues --    1.50271   1.52683   1.56138   1.57933   1.58322
 Alpha virt. eigenvalues --    1.59742   1.62920   1.83017   1.88824   1.91782
 Alpha virt. eigenvalues --    2.00193   2.05089   2.07574   2.15397   2.17517
 Alpha virt. eigenvalues --    2.20839   2.28198   2.36346   2.51198   2.52837
 Alpha virt. eigenvalues --    2.61807   2.62179   2.78826   2.82862   3.17956
 Alpha virt. eigenvalues --    3.18443   3.22502   3.28658   3.41930   3.42566
 Alpha virt. eigenvalues --    4.27267   4.46290   5.61481   5.62059   5.62123
 Alpha virt. eigenvalues --    5.62995   5.64480   5.64706   5.65917   5.69116
 Alpha virt. eigenvalues --    5.81110   5.83559   5.85390   5.88227   6.20536
 Alpha virt. eigenvalues --    6.28246   6.79978   6.82357   6.83813   6.83845
 Alpha virt. eigenvalues --    7.05486   7.06327   7.08630   7.16958   7.38954
 Alpha virt. eigenvalues --    7.59634  45.08968  45.14129
          Condensed to atoms (all electrons):
               1          2          3
     1  Ti  19.731570   0.383432   0.369082
     2  O    0.383432   8.393295   0.003615
     3  O    0.369082   0.003615   8.362878
 Mulliken charges:
               1
     1  Ti   1.515917
     2  O   -0.780342
     3  O   -0.735575
 Sum of Mulliken charges =   0.00000
 Mulliken charges with hydrogens summed into heavy atoms:
               1
     1  Ti   1.515917
     2  O   -0.780342
     3  O   -0.735575
 APT charges:
               1
     1  Ti   1.430208
     2  O   -0.698975
     3  O   -0.731232
 Sum of APT charges =   0.00000
 APT charges with hydrogens summed into heavy atoms:
               1
     1  Ti   1.430208
     2  O   -0.698975
     3  O   -0.731232
 Electronic spatial extent (au):  <R**2>=            195.7272
 Charge=              0.0000 electrons
 Dipole moment (field-independent basis, Debye):
    X=             -0.3378    Y=              8.5259    Z=              0.0000  Tot=              8.5326
 Quadrupole moment (field-independent basis, Debye-Ang):
   XX=            -38.5143   YY=            -22.5531   ZZ=            -22.4110
   XY=              0.6894   XZ=              0.0000   YZ=              0.0000
 Traceless Quadrupole moment (field-independent basis, Debye-Ang):
   XX=            -10.6882   YY=              5.2730   ZZ=              5.4151
   XY=              0.6894   XZ=              0.0000   YZ=              0.0000
 Octapole moment (field-independent basis, Debye-Ang**2):
  XXX=             -1.3627  YYY=             14.9658  ZZZ=              0.0000  XYY=             -0.7559
  XXY=              8.9948  XXZ=              0.0000  XZZ=             -0.3087  YZZ=              4.8275
  YYZ=              0.0000  XYZ=              0.0000
 Hexadecapole moment (field-independent basis, Debye-Ang**3):
 XXXX=           -190.0517 YYYY=            -51.0936 ZZZZ=            -19.9944 XXXY=              4.0497
 XXXZ=              0.0000 YYYX=              3.5115 YYYZ=              0.0000 ZZZX=              0.0000
 ZZZY=              0.0000 XXYY=            -39.7953 XXZZ=            -32.0944 YYZZ=            -11.5610
 XXYZ=              0.0000 YYXZ=              0.0000 ZZXY=              1.0428
 N-N= 1.252443022294D+02 E-N=-2.617454946790D+03  KE= 9.977725881475D+02
 Symmetry A'   KE= 8.963783683580D+02
 Symmetry A"   KE= 1.013942197895D+02
  Exact polarizability:  55.280  -1.838  27.672   0.000   0.000  19.226
 Approx polarizability:  40.849  -1.041  29.319   0.000   0.000  16.216
   2 Symmetry operations used in ECPInt.
 ECPInt:  NShTT=     703 NPrTT=    3029 LenC2=     698 LenP2D=    2552.
 LDataN:  DoStor=T MaxTD1= 8 Len=  415
 Calling FoFJK, ICntrl=  10100127 FMM=F ISym2X=1 I1Cent= 0 IOpClX= 0 NMat=1 NMatS=1 NMatT=0.
 Full mass-weighted force constant matrix:
 Low frequencies --- -187.8580 -131.1578   -0.0065   -0.0059    0.0022   10.0894
 Low frequencies ---  312.4304  917.7081 1070.1891
 Diagonal vibrational polarizability:
        7.6629935       1.5789123       0.0000000
 Harmonic frequencies (cm**-1), IR intensities (KM/Mole), Raman scattering
 activities (A**4/AMU), depolarization ratios for plane and unpolarized
 incident light, reduced masses (AMU), force constants (mDyne/A),
 and normal coordinates:
                      1                      2                      3
                     A'                     A'                     A'
 Frequencies --    308.5776               917.6852              1070.1891
 Red. masses --     18.3855                19.0639                19.4539
 Frc consts  --      1.0315                 9.4591                13.1274
 IR Inten    --      4.9301                91.5459               209.5233
  Atom  AN      X      Y      Z        X      Y      Z        X      Y      Z
     1  22     0.00  -0.27   0.00    -0.20   0.23   0.00    -0.28  -0.17   0.00
     2   8     0.55   0.38   0.00     0.73  -0.59   0.00     0.09  -0.05   0.00
     3   8    -0.54   0.44   0.00    -0.12  -0.11   0.00     0.76   0.55   0.00

 -------------------
 - Thermochemistry -
 -------------------
 Temperature   298.150 Kelvin.  Pressure   1.00000 Atm.
 Atom     1 has atomic number 22 and mass  47.94795
 Atom     2 has atomic number  8 and mass  15.99491
 Atom     3 has atomic number  8 and mass  15.99491
 Molecular mass:    79.93778 amu.
 Principal axes and moments of inertia in atomic units:
                           1         2         3
     Eigenvalues --    65.10338 204.40790 269.51128
           X            0.99843   0.05603   0.00000
           Y           -0.05603   0.99843   0.00000
           Z            0.00000   0.00000   1.00000
 This molecule is an asymmetric top.
 Rotational symmetry number  1.
 Rotational temperatures (Kelvin)      1.33041     0.42373     0.32137
 Rotational constants (GHZ):          27.72116     8.82912     6.69635
 Zero-point vibrational energy      13735.8 (Joules/Mol)
                                    3.28294 (Kcal/Mol)
 Warning -- explicit consideration of   1 degrees of freedom as
           vibrations may cause significant error
 Vibrational temperatures:    443.97  1320.34  1539.76
          (Kelvin)
 
 Zero-point correction=                           0.005232 (Hartree/Particle)
 Thermal correction to Energy=                    0.008552
 Thermal correction to Enthalpy=                  0.009497
 Thermal correction to Gibbs Free Energy=        -0.020636
 Sum of electronic and zero-point Energies=           -998.854344
 Sum of electronic and thermal Energies=              -998.851023
 Sum of electronic and thermal Enthalpies=            -998.850079
 Sum of electronic and thermal Free Energies=         -998.880212
 
                     E (Thermal)             CV                S
                      KCal/Mol        Cal/Mol-Kelvin    Cal/Mol-Kelvin
 Total                    5.367              8.402             63.420
 Electronic               0.000              0.000              0.000
 Translational            0.889              2.981             39.051
 Rotational               0.889              2.981             22.799
 Vibrational              3.589              2.440              1.570
 Vibration     1          0.698              1.657              1.370
                       Q            Log10(Q)             Ln(Q)
 Total Bot       0.310511D+10          9.492077         21.856316
 Total V=0       0.791574D+12         11.898491         27.397289
 Vib (Bot)       0.515597D-02         -2.287689         -5.267599
 Vib (Bot)    1  0.613293D+00         -0.212332         -0.488913
 Vib (V=0)       0.131439D+01          0.118725          0.273374
 Vib (V=0)    1  0.129128D+01          0.111021          0.255636
 Electronic      0.100000D+01          0.000000          0.000000
 Translational   0.280920D+08          7.448582         17.150994
 Rotational      0.214380D+05          4.331185          9.972921
 ***** Axes restored to original set *****
 -------------------------------------------------------------------
 Center     Atomic                   Forces (Hartrees/Bohr)
 Number     Number              X              Y              Z
 -------------------------------------------------------------------
      1       22          -0.046844544    0.000000000    0.015184164
      2        8          -0.000010342    0.000000000   -0.000152838
      3        8           0.046854886    0.000000000   -0.015031326
 -------------------------------------------------------------------
 Cartesian Forces:  Max     0.046854886 RMS     0.023205159
 -----------------------------------------------------------------------------------------------
                       Internal Coordinate Forces (Hartree/Bohr or radian)
  Cent   Atom   N1       Length/X         N2         Alpha/Y        N3         Beta/Z          J
 -----------------------------------------------------------------------------------------------
      1  Ti
      2  O        1  -0.000153(     1)
      3  O        1   0.049207(     2)      2   0.000033(     3)
 -----------------------------------------------------------------------------------------------
 Internal  Forces:  Max     0.049206920 RMS     0.028409772

 GradGradGradGradGradGradGradGradGradGradGradGradGradGradGradGradGradGrad
 Berny optimization.
 Search for a local minimum.
 Step number   1 out of a maximum of    2
 All quantities printed in internal units (Hartrees-Bohrs-Radians)
 Second derivative matrix not updated -- analytic derivatives used.
 The second derivative matrix:
                          R1        A1        R2
           R1           0.38317
           A1          -0.00848   0.25163
           R2           0.01267  -0.00909   0.51524
 ITU=  0
     Eigenvalues ---    0.25109   0.383721000.00000
 Angle between quadratic step and forces=   4.36 degrees.
 Linear search not attempted -- first point.
 Variable       Old X    -DE/DX   Delta X   Delta X   Delta X     New X
                                 (Linear)    (Quad)   (Total)
    R1        3.18455  -0.00015   0.00000  -0.00040  -0.00040   3.18416
    A1        1.88101   0.00003   0.00000   0.00012   0.00012   1.88113
    R2        3.07080   0.04921   0.00000   0.00000   0.00000   3.07080
         Item               Value     Threshold  Converged?
 Maximum Force            0.000153     0.000450     YES
 RMS     Force            0.000111     0.000300     YES
 Maximum Displacement     0.000396     0.001800     YES
 RMS     Displacement     0.000239     0.001200     YES
 Predicted change in Energy=-3.221960D-08
 Optimization completed.
    -- Stationary point found.
                       ----------------------------
                       !   Optimized Parameters   !
                       ! (Angstroms and Degrees)  !
 ----------------------                            ----------------------
 !      Name          Value   Derivative information (Atomic Units)     !
 ------------------------------------------------------------------------
 !       R1          1.6852   -DE/DX =   -0.0002                        !
 !       A1        107.7741   -DE/DX =    0.0                           !
 !       R2          1.625    -DE/DX =    0.0492                        !
 ------------------------------------------------------------------------
 GradGradGradGradGradGradGradGradGradGradGradGradGradGradGradGradGradGrad


 ----------------------------------------------------------------------

 Electric dipole moment (input orientation):
 (Debye = 10**-18 statcoulomb cm , SI units = C m)
                  (au)            (Debye)         (10**-30 SI)
   Tot        0.255857D+01      0.650323D+01      0.216924D+02
   x         -0.198339D+01     -0.504127D+01     -0.168159D+02
   y          0.000000D+00      0.000000D+00      0.000000D+00
   z         -0.161630D+01     -0.410823D+01     -0.137036D+02

 Dipole polarizability, Alpha (input orientation).
 (esu units = cm**3 , SI units = C**2 m**2 J**-1)
 Alpha(0;0):
               (au)            (10**-24 esu)      (10**-40 SI)
   iso        0.340592D+02      0.504705D+01      0.561561D+01
   aniso      0.328149D+02      0.486266D+01      0.541044D+01
   xx         0.361454D+02      0.535620D+01      0.595957D+01
   yx         0.000000D+00      0.000000D+00      0.000000D+00
   yy         0.192264D+02      0.284905D+01      0.317000D+01
   zx        -0.128653D+02     -0.190645D+01     -0.212121D+01
   zy         0.000000D+00      0.000000D+00      0.000000D+00
   zz         0.468059D+02      0.693592D+01      0.771725D+01

 ----------------------------------------------------------------------

 Dipole orientation:
    22          0.00000000          0.00000000          0.00000000
     8         -2.46865021          0.00000000         -2.01175073
     8          2.57397162          0.00000000         -1.67466807

 Electric dipole moment (dipole orientation):
 (Debye = 10**-18 statcoulomb cm , SI units = C m)
                  (au)            (Debye)         (10**-30 SI)
   Tot        0.255857D+01      0.650323D+01      0.216924D+02
   x          0.000000D+00      0.000000D+00      0.000000D+00
   y          0.000000D+00      0.000000D+00      0.000000D+00
   z          0.255857D+01      0.650323D+01      0.216924D+02

 Dipole polarizability, Alpha (dipole orientation).
 (esu units = cm**3 , SI units = C**2 m**2 J**-1)
 Alpha(0;0):
               (au)            (10**-24 esu)      (10**-40 SI)
   iso        0.340592D+02      0.504705D+01      0.561561D+01
   aniso      0.328149D+02      0.486266D+01      0.541044D+01
   xx         0.551521D+02      0.817269D+01      0.909335D+01
   yx         0.000000D+00      0.000000D+00      0.000000D+00
   yy         0.192264D+02      0.284905D+01      0.317000D+01
   zx         0.262358D+01      0.388775D+00      0.432570D+00
   zy         0.000000D+00      0.000000D+00      0.000000D+00
   zz         0.277992D+02      0.411942D+01      0.458347D+01

 ----------------------------------------------------------------------
 1|1|UNPC-DESKTOP-F4NP0R6|Freq|RMP2-FC|def2TZVP|O2Ti1|GARRETT|22-Jul-20
 18|1||#N Geom=AllCheck Guess=TCheck SCRF=Check GenChk RMP2(FC)/def2TZV
 P Freq||TiO21a1||0,1|Ti|O,1,R1|O,1,R2,2,A1||R1=1.68519263|A1=107.77405
 717|R2=1.625||Version=EM64W-G16RevB.01|State=1-A'|HF=-998.1596622|MP2=
 -998.8595754|RMSD=1.383e-009|RMSF=2.321e-002|ZeroPoint=0.0052317|Therm
 al=0.0085523|Dipole=-1.9833891,0.,-1.6163021|DipoleDeriv=1.2491896,0.,
 -0.9983392,0.,1.3854585,0.,-0.9126015,0.,1.6559746,-0.4126503,0.,0.226
 5877,0.,-0.7071982,0.,0.5410944,0.,-0.9770768,-0.8365393,0.,0.7717514,
 0.,-0.6782604,0.,0.3715071,0.,-0.6788978|Polar=36.1453959,0.,19.226353
 8,-12.8653302,0.,46.8058805|PG=CS [SG(O2Ti1)]|NImag=0||0.51594788,0.,-
 0.01596689,-0.10506936,0.,0.43665518,-0.03543512,0.,-0.02629127,0.0248
 6066,0.,-0.00005261,0.,0.,0.00004927,-0.01556929,0.,-0.38193320,0.0026
 5948,0.,0.38317191,-0.48051276,0.,0.13136062,0.01057446,0.,0.01290981,
 0.46993831,0.,0.01601950,0.,0.,0.00000333,0.,0.,-0.01602283,0.12063865
 ,0.,-0.05472198,0.02363179,0.,-0.00123870,-0.14427043,0.,0.05596068||0
 .04684454,0.,-0.01518416,0.00001034,0.,0.00015284,-0.04685489,0.,0.015
 03133|||@


 WE ARE REACHING THE STAGE WHERE THE PROBLEMS WE MUST SOLVE ARE 
 GOING TO BECOME INSOLUBLE WITHOUT COMPUTERS.
 I DO NOT FEAR COMPUTERS.  I FEAR THE LACK OF THEM.

                                   -- ISSAC ASIMOV
 Job cpu time:       0 days  0 hours  6 minutes  2.0 seconds.
 Elapsed time:       0 days  0 hours  5 minutes 53.1 seconds.
 File lengths (MBytes):  RWF=   1341 Int=      0 D2E=      0 Chk=      2 Scr=      1
 Normal termination of Gaussian 16 at Sun Jul 22 14:53:44 2018.
