 Entering Link 1 = C:\G16W\l1.exe PID=     13280.
  
 Copyright (c) 1988-2017, Gaussian, Inc.  All Rights Reserved.
  
 This is part of the Gaussian(R) 16 program.  It is based on
 the Gaussian(R) 09 system (copyright 2009, Gaussian, Inc.),
 the Gaussian(R) 03 system (copyright 2003, Gaussian, Inc.),
 the Gaussian(R) 98 system (copyright 1998, Gaussian, Inc.),
 the Gaussian(R) 94 system (copyright 1995, Gaussian, Inc.),
 the Gaussian 92(TM) system (copyright 1992, Gaussian, Inc.),
 the Gaussian 90(TM) system (copyright 1990, Gaussian, Inc.),
 the Gaussian 88(TM) system (copyright 1988, Gaussian, Inc.),
 the Gaussian 86(TM) system (copyright 1986, Carnegie Mellon
 University), and the Gaussian 82(TM) system (copyright 1983,
 Carnegie Mellon University). Gaussian is a federally registered
 trademark of Gaussian, Inc.
  
 This software contains proprietary and confidential information,
 including trade secrets, belonging to Gaussian, Inc.
  
 This software is provided under written license and may be
 used, copied, transmitted, or stored only in accord with that
 written license.
  
 The following legend is applicable only to US Government
 contracts under FAR:
  
                    RESTRICTED RIGHTS LEGEND
  
 Use, reproduction and disclosure by the US Government is
 subject to restrictions as set forth in subparagraphs (a)
 and (c) of the Commercial Computer Software - Restricted
 Rights clause in FAR 52.227-19.
  
 Gaussian, Inc.
 340 Quinnipiac St., Bldg. 40, Wallingford CT 06492
  
  
 ---------------------------------------------------------------
 Warning -- This program may not be used in any manner that
 competes with the business of Gaussian, Inc. or will provide
 assistance to any competitor of Gaussian, Inc.  The licensee
 of this program is prohibited from giving any competitor of
 Gaussian, Inc. access to this program.  By using this program,
 the user acknowledges that Gaussian, Inc. is engaged in the
 business of creating and licensing software in the field of
 computational chemistry and represents and warrants to the
 licensee that it is not a competitor of Gaussian, Inc. and that
 it will not use this program in any manner prohibited above.
 ---------------------------------------------------------------
  

 Cite this work as:
 Gaussian 16, Revision B.01,
 M. J. Frisch, G. W. Trucks, H. B. Schlegel, G. E. Scuseria, 
 M. A. Robb, J. R. Cheeseman, G. Scalmani, V. Barone, 
 G. A. Petersson, H. Nakatsuji, X. Li, M. Caricato, A. V. Marenich, 
 J. Bloino, B. G. Janesko, R. Gomperts, B. Mennucci, H. P. Hratchian, 
 J. V. Ortiz, A. F. Izmaylov, J. L. Sonnenberg, D. Williams-Young, 
 F. Ding, F. Lipparini, F. Egidi, J. Goings, B. Peng, A. Petrone, 
 T. Henderson, D. Ranasinghe, V. G. Zakrzewski, J. Gao, N. Rega, 
 G. Zheng, W. Liang, M. Hada, M. Ehara, K. Toyota, R. Fukuda, 
 J. Hasegawa, M. Ishida, T. Nakajima, Y. Honda, O. Kitao, H. Nakai, 
 T. Vreven, K. Throssell, J. A. Montgomery, Jr., J. E. Peralta, 
 F. Ogliaro, M. J. Bearpark, J. J. Heyd, E. N. Brothers, K. N. Kudin, 
 V. N. Staroverov, T. A. Keith, R. Kobayashi, J. Normand, 
 K. Raghavachari, A. P. Rendell, J. C. Burant, S. S. Iyengar, 
 J. Tomasi, M. Cossi, J. M. Millam, M. Klene, C. Adamo, R. Cammi, 
 J. W. Ochterski, R. L. Martin, K. Morokuma, O. Farkas, 
 J. B. Foresman, and D. J. Fox, Gaussian, Inc., Wallingford CT, 2016.
 
 ******************************************
 Gaussian 16:  EM64W-G16RevB.01 16-Dec-2017
                22-Jul-2018 
 ******************************************
 %nproc=2
 Will use up to    2 processors via shared memory.
 %mem=4gb
 %chk=TiO21aHigher1.7.chk
 ------------------------------------------
 # MP2 Def2TZVP opt=(noeigen,z-matrix) freq
 ------------------------------------------
 1/10=7,11=1,18=40,38=1/1,3;
 2/12=2,17=6,18=5,29=3,40=1/2;
 3/5=44,7=101,11=9,25=1,30=1,71=1/1,2,3;
 4//1;
 5/5=2,38=5/2;
 8/6=4,10=1/1;
 9/15=2,16=-3/6;
 10/5=1/2;
 6/7=2,8=2,9=2,10=2/1;
 7/12=2,29=1/1,2,3,16;
 1/10=7,11=1,18=40/3(2);
 2/29=3/2;
 99//99;
 2/29=3/2;
 3/5=44,7=101,11=9,25=1,30=1,71=1/1,2,3;
 4/5=5,16=3,69=1/1;
 5/5=2,38=5/2;
 8/6=4,10=1/1;
 9/15=2,16=-3/6;
 10/5=1/2;
 7/12=2/1,2,3,16;
 1/11=1,18=40/3(-8);
 2/29=3/2;
 6/7=2,8=2,9=2,10=2/1;
 99/9=10/99;
 -------
 TiO21a1
 -------
 Symbolic Z-matrix:
 Charge =  0 Multiplicity = 1
 Ti
 O                    1    R1
 O                    1    R2       2    A1
       Variables:
  R1                    1.68346                  
  A1                  107.96916                  
       Constants:
  R2                    1.725                    
 

 GradGradGradGradGradGradGradGradGradGradGradGradGradGradGradGradGradGrad
 Berny optimization.
 Initialization pass.
                       ----------------------------
                       !    Initial Parameters    !
                       ! (Angstroms and Degrees)  !
 ----------------------                            ----------------------
 !      Name          Value   Derivative information (Atomic Units)     !
 ------------------------------------------------------------------------
 !       R1          1.6835   estimate D2E/DX2                          !
 !       A1        107.9692   estimate D2E/DX2                          !
 !       R2          1.725    Frozen                                    !
 ------------------------------------------------------------------------
 Trust Radius=3.00D-01 FncErr=1.00D-07 GrdErr=1.00D-07 EigMax=2.50D+02 EigMin=1.00D-04
 Number of steps in this run=     20 maximum allowed number of steps=    100.
 GradGradGradGradGradGradGradGradGradGradGradGradGradGradGradGradGradGrad

 ---------------------------------------------------------------------------------------------------
                            Z-MATRIX (ANGSTROMS AND DEGREES)
   CD    Cent   Atom    N1       Length/X        N2       Alpha/Y        N3        Beta/Z          J
 ---------------------------------------------------------------------------------------------------
      1      1  Ti
      2      2  O        1   1.683455(     1)
      3      3  O        1   1.725000(     2)      2  107.969(     3)
 ---------------------------------------------------------------------------------------------------
                         Z-Matrix orientation:                         
 ---------------------------------------------------------------------
 Center     Atomic      Atomic             Coordinates (Angstroms)
 Number     Number       Type             X           Y           Z
 ---------------------------------------------------------------------
      1         22           0        0.000000    0.000000    0.000000
      2          8           0        0.000000    0.000000    1.683455
      3          8           0        1.640859    0.000000   -0.532171
 ---------------------------------------------------------------------
                    Distance matrix (angstroms):
                    1          2          3
     1  Ti   0.000000
     2  O    1.683455   0.000000
     3  O    1.725000   2.757067   0.000000
 Stoichiometry    O2Ti
 Framework group  CS[SG(O2Ti)]
 Deg. of freedom     3
 Full point group                 CS      NOp   2
 Largest Abelian subgroup         CS      NOp   2
 Largest concise Abelian subgroup C1      NOp   1
                         Standard orientation:                         
 ---------------------------------------------------------------------
 Center     Atomic      Atomic             Coordinates (Angstroms)
 Number     Number       Type             X           Y           Z
 ---------------------------------------------------------------------
      1         22           0        0.000000    0.421992    0.000000
      2          8           0        1.378081   -0.544917    0.000000
      3          8           0       -1.378081   -0.615562    0.000000
 ---------------------------------------------------------------------
 Rotational constants (GHZ):          26.2463258           8.3107143           6.3120485
 Standard basis: def2TZVP (5D, 7F)
 There are    86 symmetry adapted cartesian basis functions of A'  symmetry.
 There are    38 symmetry adapted cartesian basis functions of A"  symmetry.
 There are    72 symmetry adapted basis functions of A'  symmetry.
 There are    35 symmetry adapted basis functions of A"  symmetry.
   107 basis functions,   204 primitive gaussians,   124 cartesian basis functions
    19 alpha electrons       19 beta electrons
       nuclear repulsion energy       121.5990763081 Hartrees.
 NAtoms=    3 NActive=    3 NUniq=    3 SFac= 1.00D+00 NAtFMM=   60 NAOKFM=F Big=F
 Integral buffers will be    131072 words long.
 Raffenetti 1 integral format.
 Two-electron integral symmetry is turned on.
 One-electron integrals computed using PRISM.
   2 Symmetry operations used in ECPInt.
 ECPInt:  NShTT=     703 NPrTT=    3029 LenC2=     698 LenP2D=    2543.
 LDataN:  DoStor=T MaxTD1= 6 Len=  172
 NBasis=   107 RedAO= T EigKep=  3.53D-03  NBF=    72    35
 NBsUse=   107 1.00D-06 EigRej= -1.00D+00 NBFU=    72    35
 ExpMin= 3.27D-02 ExpMax= 2.12D+05 ExpMxC= 2.04D+03 IAcc=3 IRadAn=         5 AccDes= 0.00D+00
 Harris functional with IExCor=  205 and IRadAn=       5 diagonalized for initial guess.
 HarFok:  IExCor=  205 AccDes= 0.00D+00 IRadAn=         5 IDoV= 1 UseB2=F ITyADJ=14
 ICtDFT=  3500011 ScaDFX=  1.000000  1.000000  1.000000  1.000000
 FoFCou: FMM=F IPFlag=           0 FMFlag=      100000 FMFlg1=           0
         NFxFlg=           0 DoJE=T BraDBF=F KetDBF=T FulRan=T
         wScrn=  0.000000 ICntrl=       500 IOpCl=  0 I1Cent=   200000004 NGrid=           0
         NMat0=    1 NMatS0=      1 NMatT0=    0 NMatD0=    1 NMtDS0=    0 NMtDT0=    0
 Petite list used in FoFCou.
 Initial guess orbital symmetries:
       Occupied  (A') (A') (A') (A') (A') (A') (A") (A') (A') (A')
                 (A") (A') (A') (A') (A') (A") (A") (A') (A')
       Virtual   (A') (A") (A') (A") (A') (A') (A") (A') (A') (A")
                 (A") (A') (A') (A') (A') (A') (A') (A') (A") (A')
                 (A") (A") (A") (A') (A') (A') (A') (A') (A") (A')
                 (A') (A") (A") (A') (A') (A') (A") (A") (A') (A')
                 (A") (A') (A') (A') (A") (A") (A') (A') (A') (A")
                 (A') (A") (A') (A') (A") (A') (A") (A') (A') (A')
                 (A') (A') (A") (A') (A") (A') (A") (A') (A') (A")
                 (A") (A') (A') (A") (A') (A') (A") (A') (A') (A")
                 (A') (A") (A") (A') (A') (A') (A') (A')
 The electronic state of the initial guess is 1-A'.
 Keep R1 ints in memory in symmetry-blocked form, NReq=25194790.
 Requested convergence on RMS density matrix=1.00D-08 within 128 cycles.
 Requested convergence on MAX density matrix=1.00D-06.
 Requested convergence on             energy=1.00D-06.
 No special actions if energy rises.
 SCF Done:  E(RHF) =  -998.146852759     A.U. after   18 cycles
            NFock= 18  Conv=0.48D-08     -V/T= 2.0007
 ExpMin= 3.27D-02 ExpMax= 2.12D+05 ExpMxC= 2.04D+03 IAcc=3 IRadAn=         5 AccDes= 0.00D+00
 HarFok:  IExCor=  205 AccDes= 0.00D+00 IRadAn=         5 IDoV=-2 UseB2=F ITyADJ=14
 ICtDFT= 12500011 ScaDFX=  1.000000  1.000000  1.000000  1.000000
 Range of M.O.s used for correlation:    12   107
 NBasis=   107 NAE=    19 NBE=    19 NFC=    11 NFV=     0
 NROrb=     96 NOA=     8 NOB=     8 NVA=    88 NVB=    88
 Fully direct method using O(ONN) memory.
 JobTyp=1 Pass  1:  I=  12 to  19 NPSUse=  2 ParTrn=T ParDer=T DoDerP=T.
 Spin components of T(2) and E(2):
     alpha-alpha T2 =       0.4593255079D-01 E2=     -0.1045784088D+00
     alpha-beta  T2 =       0.1979336242D+00 E2=     -0.5050565115D+00
     beta-beta   T2 =       0.4593255079D-01 E2=     -0.1045784088D+00
 ANorm=    0.1135693060D+01
 E2 =    -0.7142133291D+00 EUMP2 =    -0.99886106608829D+03
          IDoAtm=111
          Differentiating once with respect to electric field.
                with respect to dipole field.
          Differentiating once with respect to nuclear coordinates.
 Keep R1 ints in memory in symmetry-blocked form, NReq=25195559.
          There are     1 degrees of freedom in the 1st order CPHF.  IDoFFX=0 NUNeed=     1.
 LinEq1:  Iter=  0 NonCon=     1 RMS=1.57D-02 Max=2.32D-01 NDo=     1
 AX will form     1 AO Fock derivatives at one time.
 LinEq1:  Iter=  1 NonCon=     1 RMS=8.65D-03 Max=9.16D-02 NDo=     1
 LinEq1:  Iter=  2 NonCon=     1 RMS=4.38D-03 Max=5.48D-02 NDo=     1
 LinEq1:  Iter=  3 NonCon=     1 RMS=1.98D-03 Max=2.28D-02 NDo=     1
 LinEq1:  Iter=  4 NonCon=     1 RMS=5.22D-04 Max=6.20D-03 NDo=     1
 LinEq1:  Iter=  5 NonCon=     1 RMS=1.67D-04 Max=2.44D-03 NDo=     1
 LinEq1:  Iter=  6 NonCon=     1 RMS=9.47D-05 Max=1.48D-03 NDo=     1
 LinEq1:  Iter=  7 NonCon=     1 RMS=5.76D-05 Max=8.76D-04 NDo=     1
 LinEq1:  Iter=  8 NonCon=     1 RMS=2.09D-05 Max=2.57D-04 NDo=     1
 LinEq1:  Iter=  9 NonCon=     1 RMS=5.30D-06 Max=6.12D-05 NDo=     1
 LinEq1:  Iter= 10 NonCon=     1 RMS=1.17D-06 Max=1.29D-05 NDo=     1
 LinEq1:  Iter= 11 NonCon=     1 RMS=2.72D-07 Max=4.12D-06 NDo=     1
 LinEq1:  Iter= 12 NonCon=     1 RMS=6.46D-08 Max=8.05D-07 NDo=     1
 LinEq1:  Iter= 13 NonCon=     1 RMS=1.70D-08 Max=1.80D-07 NDo=     1
 LinEq1:  Iter= 14 NonCon=     1 RMS=5.70D-09 Max=5.57D-08 NDo=     1
 LinEq1:  Iter= 15 NonCon=     1 RMS=1.87D-09 Max=2.17D-08 NDo=     1
 LinEq1:  Iter= 16 NonCon=     1 RMS=4.33D-10 Max=5.07D-09 NDo=     1
 LinEq1:  Iter= 17 NonCon=     1 RMS=1.05D-10 Max=1.40D-09 NDo=     1
 LinEq1:  Iter= 18 NonCon=     0 RMS=2.35D-11 Max=2.68D-10 NDo=     1
 Linear equations converged to 1.000D-10 1.000D-09 after    18 iterations.
 End of Minotr F.D. properties file   721 does not exist.
 End of Minotr F.D. properties file   722 does not exist.
 End of Minotr F.D. properties file   788 does not exist.

 **********************************************************************

            Population analysis using the SCF Density.

 **********************************************************************

 Orbital symmetries:
       Occupied  (A') (A') (A') (A') (A') (A") (A') (A') (A') (A')
                 (A") (A') (A') (A') (A') (A") (A') (A") (A')
       Virtual   (A') (A") (A') (A') (A') (A") (A") (A') (A") (A')
                 (A') (A") (A') (A') (A') (A') (A') (A") (A") (A')
                 (A') (A') (A") (A') (A") (A') (A') (A') (A") (A')
                 (A') (A") (A') (A") (A') (A') (A") (A") (A') (A')
                 (A') (A") (A') (A') (A") (A") (A') (A') (A') (A")
                 (A") (A') (A') (A') (A") (A') (A") (A') (A') (A')
                 (A') (A') (A") (A') (A") (A') (A") (A') (A') (A")
                 (A") (A') (A') (A") (A') (A') (A") (A') (A') (A")
                 (A') (A") (A") (A') (A') (A') (A') (A')
 The electronic state is 1-A'.
 Alpha  occ. eigenvalues -- -183.42490 -21.59931 -20.51767 -20.50701 -17.96702
 Alpha  occ. eigenvalues --  -17.96583 -17.96560  -3.00505  -1.93732  -1.93131
 Alpha  occ. eigenvalues --   -1.92622  -1.16724  -1.14999  -0.49354  -0.48421
 Alpha  occ. eigenvalues --   -0.44636  -0.43543  -0.42318  -0.40121
 Alpha virt. eigenvalues --   -0.04321   0.03718   0.04256   0.08120   0.12212
 Alpha virt. eigenvalues --    0.12290   0.16292   0.16480   0.17190   0.18628
 Alpha virt. eigenvalues --    0.20913   0.21448   0.23018   0.29175   0.32980
 Alpha virt. eigenvalues --    0.61043   0.62983   0.65686   0.65810   0.68656
 Alpha virt. eigenvalues --    0.73329   0.75230   0.77150   0.78451   0.79175
 Alpha virt. eigenvalues --    0.81388   0.99153   1.01143   1.21293   1.35857
 Alpha virt. eigenvalues --    1.46210   1.53148   1.54811   1.55738   1.57290
 Alpha virt. eigenvalues --    1.58374   1.60469   1.82748   1.86482   1.90082
 Alpha virt. eigenvalues --    1.97194   2.01983   2.03801   2.14007   2.16345
 Alpha virt. eigenvalues --    2.19136   2.23758   2.31819   2.47868   2.48229
 Alpha virt. eigenvalues --    2.56961   2.57340   2.74527   2.76869   3.15839
 Alpha virt. eigenvalues --    3.16745   3.20032   3.24518   3.40439   3.41178
 Alpha virt. eigenvalues --    4.17045   4.33818   5.61910   5.62682   5.62838
 Alpha virt. eigenvalues --    5.63231   5.64360   5.64532   5.65249   5.67600
 Alpha virt. eigenvalues --    5.78449   5.79773   5.82337   5.84172   6.11932
 Alpha virt. eigenvalues --    6.16912   6.79734   6.81893   6.82814   6.82935
 Alpha virt. eigenvalues --    7.02422   7.03364   7.05379   7.13033   7.36800
 Alpha virt. eigenvalues --    7.54121  45.03974  45.07718
          Condensed to atoms (all electrons):
               1          2          3
     1  Ti  19.689193   0.386803   0.394504
     2  O    0.386803   8.363616   0.001055
     3  O    0.394504   0.001055   8.382467
 Mulliken charges:
               1
     1  Ti   1.529500
     2  O   -0.751474
     3  O   -0.778026
 Sum of Mulliken charges =   0.00000
 Mulliken charges with hydrogens summed into heavy atoms:
               1
     1  Ti   1.529500
     2  O   -0.751474
     3  O   -0.778026
 Electronic spatial extent (au):  <R**2>=            204.8735
 Charge=              0.0000 electrons
 Dipole moment (field-independent basis, Debye):
    X=              0.2115    Y=              8.7884    Z=              0.0000  Tot=              8.7909
 Quadrupole moment (field-independent basis, Debye-Ang):
   XX=            -39.5348   YY=            -22.6460   ZZ=            -22.6447
   XY=             -0.4826   XZ=              0.0000   YZ=              0.0000
 Traceless Quadrupole moment (field-independent basis, Debye-Ang):
   XX=            -11.2596   YY=              5.6291   ZZ=              5.6305
   XY=             -0.4826   XZ=              0.0000   YZ=              0.0000
 Octapole moment (field-independent basis, Debye-Ang**2):
  XXX=              0.9031  YYY=             15.5277  ZZZ=              0.0000  XYY=              0.5147
  XXY=              9.4457  XXZ=              0.0000  XZZ=              0.2036  YZZ=              4.9686
  YYZ=              0.0000  XYZ=              0.0000
 Hexadecapole moment (field-independent basis, Debye-Ang**3):
 XXXX=           -202.8644 YYYY=            -53.1448 ZZZZ=            -20.6071 XXXY=             -2.9003
 XXXZ=              0.0000 YYYX=             -2.5055 YYYZ=              0.0000 ZZZX=              0.0000
 ZZZY=              0.0000 XXYY=            -42.1713 XXZZ=            -34.0002 YYZZ=            -12.0044
 XXYZ=              0.0000 YYXZ=              0.0000 ZZXY=             -0.7441
 N-N= 1.215990763081D+02 E-N=-2.609470195136D+03  KE= 9.974751432059D+02
 Symmetry A'   KE= 8.960951340012D+02
 Symmetry A"   KE= 1.013800092048D+02
   2 Symmetry operations used in ECPInt.
 ECPInt:  NShTT=     703 NPrTT=    3029 LenC2=     698 LenP2D=    2543.
 LDataN:  DoStor=T MaxTD1= 7 Len=  274
 Calling FoFJK, ICntrl=  10002127 FMM=F ISym2X=1 I1Cent= 0 IOpClX= 0 NMat=1 NMatS=1 NMatT=0.
 ***** Axes restored to original set *****
 -------------------------------------------------------------------
 Center     Atomic                   Forces (Hartrees/Bohr)
 Number     Number              X              Y              Z
 -------------------------------------------------------------------
      1       22           0.025682437    0.000000000   -0.007690339
      2        8          -0.000127953    0.000000000   -0.000466330
      3        8          -0.025554483    0.000000000    0.008156669
 -------------------------------------------------------------------
 Cartesian Forces:  Max     0.025682437 RMS     0.012642633
 -----------------------------------------------------------------------------------------------
                       Internal Coordinate Forces (Hartree/Bohr or radian)
  Cent   Atom   N1       Length/X         N2         Alpha/Y        N3         Beta/Z          J
 -----------------------------------------------------------------------------------------------
      1  Ti
      2  O        1  -0.000466(     1)
      3  O        1  -0.026824(     2)      2   0.000407(     3)
 -----------------------------------------------------------------------------------------------
 Internal  Forces:  Max     0.026824379 RMS     0.015491185

 GradGradGradGradGradGradGradGradGradGradGradGradGradGradGradGradGradGrad
 Berny optimization.
 Search for a local minimum.
 Step number   1 out of a maximum of   20
 All quantities printed in internal units (Hartrees-Bohrs-Radians)
 Second derivative matrix not updated -- first step.
 The second derivative matrix:
                          R1        A1        R2
           R1           0.34754
           A1           0.00000   0.25000
           R2           0.00000   0.00000   0.30372
 ITU=  0
     Eigenvalues ---    0.25000   0.347541000.00000
 RFO step:  Lambda=-1.28854726D-06 EMin= 2.50000000D-01
 Linear search not attempted -- first point.
 Variable       Old X    -DE/DX   Delta X   Delta X   Delta X     New X
                                 (Linear)    (Quad)   (Total)
    R1        3.18127  -0.00047   0.00000  -0.00134  -0.00134   3.17993
    A1        1.88442   0.00041   0.00000   0.00163   0.00163   1.88605
    R2        3.25978  -0.02682   0.00000   0.00000   0.00000   3.25978
         Item               Value     Threshold  Converged?
 Maximum Force            0.000466     0.000450     NO 
 RMS     Force            0.000438     0.000300     NO 
 Maximum Displacement     0.001628     0.001800     YES
 RMS     Displacement     0.001218     0.001200     NO 
 Predicted change in Energy=-6.442736D-07
 GradGradGradGradGradGradGradGradGradGradGradGradGradGradGradGradGradGrad

 ---------------------------------------------------------------------------------------------------
                            Z-MATRIX (ANGSTROMS AND DEGREES)
   CD    Cent   Atom    N1       Length/X        N2       Alpha/Y        N3        Beta/Z          J
 ---------------------------------------------------------------------------------------------------
      1      1  Ti
      2      2  O        1   1.682745(     1)
      3      3  O        1   1.725000(     2)      2  108.062(     3)
 ---------------------------------------------------------------------------------------------------
                         Z-Matrix orientation:                         
 ---------------------------------------------------------------------
 Center     Atomic      Atomic             Coordinates (Angstroms)
 Number     Number       Type             X           Y           Z
 ---------------------------------------------------------------------
      1         22           0        0.000000    0.000000    0.000000
      2          8           0        0.000000    0.000000    1.682745
      3          8           0        1.639991    0.000000   -0.534842
 ---------------------------------------------------------------------
                    Distance matrix (angstroms):
                    1          2          3
     1  Ti   0.000000
     2  O    1.682745   0.000000
     3  O    1.725000   2.758126   0.000000
 Stoichiometry    O2Ti
 Framework group  CS[SG(O2Ti)]
 Deg. of freedom     3
 Full point group                 CS      NOp   2
 Largest Abelian subgroup         CS      NOp   2
 Largest concise Abelian subgroup C1      NOp   1
                         Standard orientation:                         
 ---------------------------------------------------------------------
 Center     Atomic      Atomic             Coordinates (Angstroms)
 Number     Number       Type             X           Y           Z
 ---------------------------------------------------------------------
      1         22           0        0.000000    0.421434    0.000000
      2          8           0        1.378594   -0.543506    0.000000
      3          8           0       -1.378594   -0.615438    0.000000
 ---------------------------------------------------------------------
 Rotational constants (GHZ):          26.3167779           8.3042526           6.3123820
 Standard basis: def2TZVP (5D, 7F)
 There are    86 symmetry adapted cartesian basis functions of A'  symmetry.
 There are    38 symmetry adapted cartesian basis functions of A"  symmetry.
 There are    72 symmetry adapted basis functions of A'  symmetry.
 There are    35 symmetry adapted basis functions of A"  symmetry.
   107 basis functions,   204 primitive gaussians,   124 cartesian basis functions
    19 alpha electrons       19 beta electrons
       nuclear repulsion energy       121.6177022499 Hartrees.
 NAtoms=    3 NActive=    3 NUniq=    3 SFac= 1.00D+00 NAtFMM=   60 NAOKFM=F Big=F
 Integral buffers will be    131072 words long.
 Raffenetti 1 integral format.
 Two-electron integral symmetry is turned on.
 One-electron integrals computed using PRISM.
   2 Symmetry operations used in ECPInt.
 ECPInt:  NShTT=     703 NPrTT=    3029 LenC2=     698 LenP2D=    2542.
 LDataN:  DoStor=T MaxTD1= 6 Len=  172
 NBasis=   107 RedAO= T EigKep=  3.53D-03  NBF=    72    35
 NBsUse=   107 1.00D-06 EigRej= -1.00D+00 NBFU=    72    35
 Initial guess from the checkpoint file:  "TiO21aHigher1.7.chk"
 B after Tr=     0.000000    0.000000    0.000000
         Rot=    1.000000    0.000000    0.000000   -0.000175 Ang=  -0.02 deg.
 Initial guess orbital symmetries:
       Occupied  (A') (A') (A') (A') (A') (A") (A') (A') (A') (A')
                 (A") (A') (A') (A') (A') (A") (A') (A") (A')
       Virtual   (A') (A") (A') (A') (A') (A") (A") (A') (A") (A')
                 (A') (A") (A') (A') (A') (A') (A') (A") (A") (A')
                 (A') (A') (A") (A') (A") (A') (A') (A') (A") (A')
                 (A') (A") (A') (A") (A') (A') (A") (A") (A') (A')
                 (A') (A") (A') (A') (A") (A") (A') (A') (A') (A")
                 (A") (A') (A') (A') (A") (A') (A") (A') (A') (A')
                 (A') (A') (A") (A') (A") (A') (A") (A') (A') (A")
                 (A") (A') (A') (A") (A') (A') (A") (A') (A') (A")
                 (A') (A") (A") (A') (A') (A') (A') (A')
 Keep R1 ints in memory in symmetry-blocked form, NReq=25194790.
 Requested convergence on RMS density matrix=1.00D-08 within 128 cycles.
 Requested convergence on MAX density matrix=1.00D-06.
 Requested convergence on             energy=1.00D-06.
 No special actions if energy rises.
 SCF Done:  E(RHF) =  -998.147059211     A.U. after   12 cycles
            NFock= 12  Conv=0.81D-08     -V/T= 2.0007
 ExpMin= 3.27D-02 ExpMax= 2.12D+05 ExpMxC= 2.04D+03 IAcc=3 IRadAn=         5 AccDes= 0.00D+00
 HarFok:  IExCor=  205 AccDes= 0.00D+00 IRadAn=         5 IDoV=-2 UseB2=F ITyADJ=14
 ICtDFT= 12500011 ScaDFX=  1.000000  1.000000  1.000000  1.000000
 Range of M.O.s used for correlation:    12   107
 NBasis=   107 NAE=    19 NBE=    19 NFC=    11 NFV=     0
 NROrb=     96 NOA=     8 NOB=     8 NVA=    88 NVB=    88
 Fully direct method using O(ONN) memory.
 JobTyp=1 Pass  1:  I=  12 to  19 NPSUse=  2 ParTrn=T ParDer=T DoDerP=T.
 Spin components of T(2) and E(2):
     alpha-alpha T2 =       0.4589348693D-01 E2=     -0.1045442718D+00
     alpha-beta  T2 =       0.1977784792D+00 E2=     -0.5049189798D+00
     beta-beta   T2 =       0.4589348693D-01 E2=     -0.1045442718D+00
 ANorm=    0.1135590354D+01
 E2 =    -0.7140075234D+00 EUMP2 =    -0.99886106673451D+03
          IDoAtm=111
          Differentiating once with respect to electric field.
                with respect to dipole field.
          Differentiating once with respect to nuclear coordinates.
 Keep R1 ints in memory in symmetry-blocked form, NReq=25195559.
          There are     1 degrees of freedom in the 1st order CPHF.  IDoFFX=0 NUNeed=     1.
 LinEq1:  Iter=  0 NonCon=     1 RMS=1.57D-02 Max=2.31D-01 NDo=     1
 AX will form     1 AO Fock derivatives at one time.
 LinEq1:  Iter=  1 NonCon=     1 RMS=8.63D-03 Max=9.13D-02 NDo=     1
 LinEq1:  Iter=  2 NonCon=     1 RMS=4.37D-03 Max=5.46D-02 NDo=     1
 LinEq1:  Iter=  3 NonCon=     1 RMS=1.98D-03 Max=2.28D-02 NDo=     1
 LinEq1:  Iter=  4 NonCon=     1 RMS=5.20D-04 Max=6.19D-03 NDo=     1
 LinEq1:  Iter=  5 NonCon=     1 RMS=1.67D-04 Max=2.43D-03 NDo=     1
 LinEq1:  Iter=  6 NonCon=     1 RMS=9.54D-05 Max=1.49D-03 NDo=     1
 LinEq1:  Iter=  7 NonCon=     1 RMS=5.75D-05 Max=8.74D-04 NDo=     1
 LinEq1:  Iter=  8 NonCon=     1 RMS=2.08D-05 Max=2.55D-04 NDo=     1
 LinEq1:  Iter=  9 NonCon=     1 RMS=5.27D-06 Max=6.09D-05 NDo=     1
 LinEq1:  Iter= 10 NonCon=     1 RMS=1.17D-06 Max=1.29D-05 NDo=     1
 LinEq1:  Iter= 11 NonCon=     1 RMS=2.71D-07 Max=4.10D-06 NDo=     1
 LinEq1:  Iter= 12 NonCon=     1 RMS=6.44D-08 Max=8.00D-07 NDo=     1
 LinEq1:  Iter= 13 NonCon=     1 RMS=1.70D-08 Max=1.81D-07 NDo=     1
 LinEq1:  Iter= 14 NonCon=     1 RMS=5.72D-09 Max=5.60D-08 NDo=     1
 LinEq1:  Iter= 15 NonCon=     1 RMS=1.87D-09 Max=2.18D-08 NDo=     1
 LinEq1:  Iter= 16 NonCon=     1 RMS=4.31D-10 Max=5.04D-09 NDo=     1
 LinEq1:  Iter= 17 NonCon=     1 RMS=1.04D-10 Max=1.39D-09 NDo=     1
 LinEq1:  Iter= 18 NonCon=     0 RMS=2.34D-11 Max=2.67D-10 NDo=     1
 Linear equations converged to 1.000D-10 1.000D-09 after    18 iterations.
 End of Minotr F.D. properties file   721 does not exist.
 End of Minotr F.D. properties file   722 does not exist.
 End of Minotr F.D. properties file   788 does not exist.
   2 Symmetry operations used in ECPInt.
 ECPInt:  NShTT=     703 NPrTT=    3029 LenC2=     698 LenP2D=    2542.
 LDataN:  DoStor=T MaxTD1= 7 Len=  274
 Calling FoFJK, ICntrl=  10002127 FMM=F ISym2X=1 I1Cent= 0 IOpClX= 0 NMat=1 NMatS=1 NMatT=0.
 ***** Axes restored to original set *****
 -------------------------------------------------------------------
 Center     Atomic                   Forces (Hartrees/Bohr)
 Number     Number              X              Y              Z
 -------------------------------------------------------------------
      1       22           0.025503068    0.000000000   -0.008352846
      2        8          -0.000010116    0.000000000    0.000049326
      3        8          -0.025492952    0.000000000    0.008303520
 -------------------------------------------------------------------
 Cartesian Forces:  Max     0.025503068 RMS     0.012644797
 -----------------------------------------------------------------------------------------------
                       Internal Coordinate Forces (Hartree/Bohr or radian)
  Cent   Atom   N1       Length/X         N2         Alpha/Y        N3         Beta/Z          J
 -----------------------------------------------------------------------------------------------
      1  Ti
      2  O        1   0.000049(     1)
      3  O        1  -0.026811(     2)      2   0.000032(     3)
 -----------------------------------------------------------------------------------------------
 Internal  Forces:  Max     0.026811172 RMS     0.015479475

 GradGradGradGradGradGradGradGradGradGradGradGradGradGradGradGradGradGrad
 Berny optimization.
 Search for a local minimum.
 Step number   2 out of a maximum of   20
 All quantities printed in internal units (Hartrees-Bohrs-Radians)
 Update second derivatives using D2CorN and points    1    2
 DE= -6.46D-07 DEPred=-6.44D-07 R= 1.00D+00
 Trust test= 1.00D+00 RLast= 2.11D-03 DXMaxT set to 3.00D-01
 The second derivative matrix:
                          R1        A1        R2
           R1           0.36240
           A1          -0.00418   0.23824
           R2           0.00199  -0.00242   0.30372
 ITU=  0  0
     Eigenvalues ---    0.23810   0.362541000.00000
 RFO step:  Lambda=-1.09644018D-08 EMin= 2.38103421D-01
 Quartic linear search produced a step of -0.01022.
 Variable       Old X    -DE/DX   Delta X   Delta X   Delta X     New X
                                 (Linear)    (Quad)   (Total)
    R1        3.17993   0.00005   0.00001   0.00012   0.00014   3.18006
    A1        1.88605   0.00003  -0.00002   0.00015   0.00014   1.88618
    R2        3.25978  -0.02681   0.00000   0.00000   0.00000   3.25978
         Item               Value     Threshold  Converged?
 Maximum Force            0.000049     0.000450     YES
 RMS     Force            0.000042     0.000300     YES
 Maximum Displacement     0.000137     0.001800     YES
 RMS     Displacement     0.000112     0.001200     YES
 Predicted change in Energy=-5.602868D-09
 Optimization completed.
    -- Stationary point found.
                       ----------------------------
                       !   Optimized Parameters   !
                       ! (Angstroms and Degrees)  !
 ----------------------                            ----------------------
 !      Name          Value   Derivative information (Atomic Units)     !
 ------------------------------------------------------------------------
 !       R1          1.6827   -DE/DX =    0.0                           !
 !       A1        108.0624   -DE/DX =    0.0                           !
 !       R2          1.725    -DE/DX =   -0.0268                        !
 ------------------------------------------------------------------------
 GradGradGradGradGradGradGradGradGradGradGradGradGradGradGradGradGradGrad

 ---------------------------------------------------------------------------------------------------
                            Z-MATRIX (ANGSTROMS AND DEGREES)
   CD    Cent   Atom    N1       Length/X        N2       Alpha/Y        N3        Beta/Z          J
 ---------------------------------------------------------------------------------------------------
      1      1  Ti
      2      2  O        1   1.682745(     1)
      3      3  O        1   1.725000(     2)      2  108.062(     3)
 ---------------------------------------------------------------------------------------------------
                         Z-Matrix orientation:                         
 ---------------------------------------------------------------------
 Center     Atomic      Atomic             Coordinates (Angstroms)
 Number     Number       Type             X           Y           Z
 ---------------------------------------------------------------------
      1         22           0        0.000000    0.000000    0.000000
      2          8           0        0.000000    0.000000    1.682745
      3          8           0        1.639991    0.000000   -0.534842
 ---------------------------------------------------------------------
                    Distance matrix (angstroms):
                    1          2          3
     1  Ti   0.000000
     2  O    1.682745   0.000000
     3  O    1.725000   2.758126   0.000000
 Stoichiometry    O2Ti
 Framework group  CS[SG(O2Ti)]
 Deg. of freedom     3
 Full point group                 CS      NOp   2
 Largest Abelian subgroup         CS      NOp   2
 Largest concise Abelian subgroup C1      NOp   1
                         Standard orientation:                         
 ---------------------------------------------------------------------
 Center     Atomic      Atomic             Coordinates (Angstroms)
 Number     Number       Type             X           Y           Z
 ---------------------------------------------------------------------
      1         22           0        0.000000    0.421434    0.000000
      2          8           0        1.378594   -0.543506    0.000000
      3          8           0       -1.378594   -0.615438    0.000000
 ---------------------------------------------------------------------
 Rotational constants (GHZ):          26.3167779           8.3042526           6.3123820

 **********************************************************************

            Population analysis using the SCF Density.

 **********************************************************************

 Orbital symmetries:
       Occupied  (A') (A') (A') (A') (A') (A") (A') (A') (A') (A')
                 (A") (A') (A') (A') (A') (A") (A') (A") (A')
       Virtual   (A') (A") (A') (A') (A') (A") (A") (A') (A") (A')
                 (A') (A") (A') (A') (A') (A') (A') (A") (A") (A')
                 (A') (A') (A") (A') (A") (A') (A') (A') (A") (A')
                 (A') (A") (A') (A") (A') (A') (A") (A") (A') (A')
                 (A') (A") (A') (A') (A") (A") (A') (A') (A') (A")
                 (A") (A') (A') (A') (A") (A') (A") (A') (A') (A')
                 (A') (A') (A") (A') (A") (A') (A") (A') (A') (A")
                 (A") (A') (A') (A") (A') (A') (A") (A') (A') (A")
                 (A') (A") (A") (A') (A') (A') (A') (A')
 The electronic state is 1-A'.
 Alpha  occ. eigenvalues -- -183.42477 -21.59920 -20.51777 -20.50692 -17.96691
 Alpha  occ. eigenvalues --  -17.96572 -17.96549  -3.00500  -1.93737  -1.93124
 Alpha  occ. eigenvalues --   -1.92616  -1.16740  -1.14995  -0.49374  -0.48430
 Alpha  occ. eigenvalues --   -0.44667  -0.43542  -0.42312  -0.40131
 Alpha virt. eigenvalues --   -0.04316   0.03722   0.04259   0.08134   0.12214
 Alpha virt. eigenvalues --    0.12310   0.16297   0.16484   0.17191   0.18634
 Alpha virt. eigenvalues --    0.20917   0.21445   0.23043   0.29173   0.32974
 Alpha virt. eigenvalues --    0.61054   0.62986   0.65684   0.65817   0.68667
 Alpha virt. eigenvalues --    0.73333   0.75216   0.77140   0.78445   0.79176
 Alpha virt. eigenvalues --    0.81401   0.99139   1.01150   1.21296   1.35845
 Alpha virt. eigenvalues --    1.46236   1.53143   1.54816   1.55750   1.57294
 Alpha virt. eigenvalues --    1.58378   1.60482   1.82750   1.86444   1.90091
 Alpha virt. eigenvalues --    1.97222   2.01980   2.03859   2.13984   2.16339
 Alpha virt. eigenvalues --    2.19166   2.23778   2.31850   2.47954   2.48237
 Alpha virt. eigenvalues --    2.57004   2.57342   2.74530   2.76904   3.15841
 Alpha virt. eigenvalues --    3.16798   3.20052   3.24484   3.40447   3.41174
 Alpha virt. eigenvalues --    4.17083   4.33930   5.61903   5.62665   5.62816
 Alpha virt. eigenvalues --    5.63218   5.64364   5.64536   5.65253   5.67597
 Alpha virt. eigenvalues --    5.78466   5.79745   5.82403   5.84197   6.11978
 Alpha virt. eigenvalues --    6.16972   6.79727   6.81880   6.82818   6.82941
 Alpha virt. eigenvalues --    7.02470   7.03367   7.05407   7.13030   7.36811
 Alpha virt. eigenvalues --    7.54132  45.03985  45.07776
          Condensed to atoms (all electrons):
               1          2          3
     1  Ti  19.689077   0.386591   0.394437
     2  O    0.386591   8.363655   0.001187
     3  O    0.394437   0.001187   8.382838
 Mulliken charges:
               1
     1  Ti   1.529895
     2  O   -0.751433
     3  O   -0.778462
 Sum of Mulliken charges =   0.00000
 Mulliken charges with hydrogens summed into heavy atoms:
               1
     1  Ti   1.529895
     2  O   -0.751433
     3  O   -0.778462
 Electronic spatial extent (au):  <R**2>=            204.8754
 Charge=              0.0000 electrons
 Dipole moment (field-independent basis, Debye):
    X=              0.2153    Y=              8.7803    Z=              0.0000  Tot=              8.7830
 Quadrupole moment (field-independent basis, Debye-Ang):
   XX=            -39.5442   YY=            -22.6466   ZZ=            -22.6433
   XY=             -0.4914   XZ=              0.0000   YZ=              0.0000
 Traceless Quadrupole moment (field-independent basis, Debye-Ang):
   XX=            -11.2662   YY=              5.6314   ZZ=              5.6348
   XY=             -0.4914   XZ=              0.0000   YZ=              0.0000
 Octapole moment (field-independent basis, Debye-Ang**2):
  XXX=              0.9194  YYY=             15.5120  ZZZ=              0.0000  XYY=              0.5237
  XXY=              9.4413  XXZ=              0.0000  XZZ=              0.2072  YZZ=              4.9638
  YYZ=              0.0000  XYZ=              0.0000
 Hexadecapole moment (field-independent basis, Debye-Ang**3):
 XXXX=           -202.9959 YYYY=            -53.0588 ZZZZ=            -20.6034 XXXY=             -2.9539
 XXXZ=              0.0000 YYYX=             -2.5512 YYYZ=              0.0000 ZZZX=              0.0000
 ZZZY=              0.0000 XXYY=            -42.1729 XXZZ=            -34.0164 YYZZ=            -11.9903
 XXYZ=              0.0000 YYXZ=              0.0000 ZZXY=             -0.7578
 N-N= 1.216177022499D+02 E-N=-2.609510282266D+03  KE= 9.974776671807D+02
 Symmetry A'   KE= 8.960975247207D+02
 Symmetry A"   KE= 1.013801424600D+02
 1|1|UNPC-DESKTOP-F4NP0R6|POpt|RMP2-FC|def2TZVP|O2Ti1|GARRETT|22-Jul-20
 18|1||# MP2 Def2TZVP opt=(noeigen,z-matrix) freq||TiO21a1||0,1|Ti|O,1,
 R1|O,1,R2,2,A1||R1=1.68274506|A1=108.06244804|R2=1.725||Version=EM64W-
 G16RevB.01|State=1-A'|HF=-998.1470592|MP2=-998.8610667|RMSD=8.128e-009
 |RMSF=1.264e-002|Dipole=-2.1330335,0.,-1.4444521|PG=CS [SG(O2Ti1)]||@


 QUANTUM MECHANICS IS BOHRING -- M.S. GORDON
 Job cpu time:       0 days  0 hours  0 minutes 53.0 seconds.
 Elapsed time:       0 days  0 hours  0 minutes 40.6 seconds.
 File lengths (MBytes):  RWF=     10 Int=      0 D2E=      0 Chk=      2 Scr=      1
 Normal termination of Gaussian 16 at Sun Jul 22 15:17:42 2018.
 Link1:  Proceeding to internal job step number  2.
 ----------------------------------------------------------------------
 #N Geom=AllCheck Guess=TCheck SCRF=Check GenChk RMP2(FC)/def2TZVP Freq
 ----------------------------------------------------------------------
 1/10=4,11=1,29=7,30=1,38=1,40=1/1,3;
 2/12=2,40=1/2;
 3/5=44,7=101,11=1,14=-4,25=1,30=1,70=2,71=2,116=1,140=1/1,2,3;
 4/5=101/1;
 5/5=2,38=6,98=1/2;
 8/6=3,8=1,10=1,19=11,30=-1/1;
 9/15=3,16=-3/6;
 11/6=1,8=1,15=11,17=12,24=-1,27=1,28=-2,29=300,32=6,42=3/1,2,10;
 10/6=2,21=1/2;
 8/6=4,8=1,10=1,19=11,30=-1/11,4;
 10/5=1,20=4/2;
 11/12=2,14=11,16=1,17=2,28=-2,42=3,76=2/2,10,12;
 6/7=2,8=2,9=2,10=2/1;
 7/8=1,10=1,12=2,25=1,44=2/1,2,3,16;
 1/10=4,11=1,30=1/3;
 99//99;
 Structure from the checkpoint file:  "TiO21aHigher1.7.chk"
 -------
 TiO21a1
 -------
 Charge =  0 Multiplicity = 1
 Z-Matrix found in chk file.
 Ti
 O,1,R1
 O,1,R2,2,A1
      Variables:
 R1=1.68274506
 A1=108.06244804
      Constants:
 R2=1.725
 Recover connectivity data from disk.

 GradGradGradGradGradGradGradGradGradGradGradGradGradGradGradGradGradGrad
 Berny optimization.
 Initialization pass.
                       ----------------------------
                       !    Initial Parameters    !
                       ! (Angstroms and Degrees)  !
 ----------------------                            ----------------------
 !      Name          Value   Derivative information (Atomic Units)     !
 ------------------------------------------------------------------------
 !       R1          1.6827   calculate D2E/DX2 analytically            !
 !       A1        108.0624   calculate D2E/DX2 analytically            !
 !       R2          1.725    frozen, calculate D2E/DX2 analytically    !
 ------------------------------------------------------------------------
 Trust Radius=3.00D-01 FncErr=1.00D-07 GrdErr=1.00D-07 EigMax=2.50D+02 EigMin=1.00D-04
 Number of steps in this run=      2 maximum allowed number of steps=      2.
 GradGradGradGradGradGradGradGradGradGradGradGradGradGradGradGradGradGrad

                          Input orientation:                          
 ---------------------------------------------------------------------
 Center     Atomic      Atomic             Coordinates (Angstroms)
 Number     Number       Type             X           Y           Z
 ---------------------------------------------------------------------
      1         22           0        0.000000    0.000000    0.000000
      2          8           0        0.000000    0.000000    1.682745
      3          8           0        1.639991    0.000000   -0.534842
 ---------------------------------------------------------------------
                    Distance matrix (angstroms):
                    1          2          3
     1  Ti   0.000000
     2  O    1.682745   0.000000
     3  O    1.725000   2.758126   0.000000
 Stoichiometry    O2Ti
 Framework group  CS[SG(O2Ti)]
 Deg. of freedom     3
 Full point group                 CS      NOp   2
 Largest Abelian subgroup         CS      NOp   2
 Largest concise Abelian subgroup C1      NOp   1
                         Standard orientation:                         
 ---------------------------------------------------------------------
 Center     Atomic      Atomic             Coordinates (Angstroms)
 Number     Number       Type             X           Y           Z
 ---------------------------------------------------------------------
      1         22           0        0.000000    0.421434    0.000000
      2          8           0        1.378594   -0.543506    0.000000
      3          8           0       -1.378594   -0.615438    0.000000
 ---------------------------------------------------------------------
 Rotational constants (GHZ):          26.3167779           8.3042526           6.3123820
 Standard basis: def2TZVP (5D, 7F)
 There are    86 symmetry adapted cartesian basis functions of A'  symmetry.
 There are    38 symmetry adapted cartesian basis functions of A"  symmetry.
 There are    72 symmetry adapted basis functions of A'  symmetry.
 There are    35 symmetry adapted basis functions of A"  symmetry.
   107 basis functions,   204 primitive gaussians,   124 cartesian basis functions
    19 alpha electrons       19 beta electrons
       nuclear repulsion energy       121.6177022499 Hartrees.
 NAtoms=    3 NActive=    3 NUniq=    3 SFac= 1.00D+00 NAtFMM=   60 NAOKFM=F Big=F
 Integral buffers will be    131072 words long.
 Raffenetti 1 integral format.
 Two-electron integral symmetry is turned on.
 One-electron integrals computed using PRISM.
   2 Symmetry operations used in ECPInt.
 ECPInt:  NShTT=     703 NPrTT=    3029 LenC2=     698 LenP2D=    2542.
 LDataN:  DoStor=T MaxTD1= 6 Len=  172
 NBasis=   107 RedAO= T EigKep=  3.53D-03  NBF=    72    35
 NBsUse=   107 1.00D-06 EigRej= -1.00D+00 NBFU=    72    35
 Initial guess from the checkpoint file:  "TiO21aHigher1.7.chk"
 B after Tr=     0.000000    0.000000    0.000000
         Rot=    1.000000    0.000000    0.000000    0.000000 Ang=   0.00 deg.
 Initial guess orbital symmetries:
       Occupied  (A') (A') (A') (A') (A') (A") (A') (A') (A') (A')
                 (A") (A') (A') (A') (A') (A") (A') (A") (A')
       Virtual   (A') (A") (A') (A') (A') (A") (A") (A') (A") (A')
                 (A') (A") (A') (A') (A') (A') (A') (A") (A") (A')
                 (A') (A') (A") (A') (A") (A') (A') (A') (A") (A')
                 (A') (A") (A') (A") (A') (A') (A") (A") (A') (A')
                 (A') (A") (A') (A') (A") (A") (A') (A') (A') (A")
                 (A") (A') (A') (A') (A") (A') (A") (A') (A') (A')
                 (A') (A') (A") (A') (A") (A') (A") (A') (A') (A")
                 (A") (A') (A') (A") (A') (A') (A") (A') (A') (A")
                 (A') (A") (A") (A') (A') (A') (A') (A')
 Keep R1 ints in memory in symmetry-blocked form, NReq=25194790.
 Requested convergence on RMS density matrix=1.00D-08 within 128 cycles.
 Requested convergence on MAX density matrix=1.00D-06.
 Requested convergence on             energy=1.00D-06.
 No special actions if energy rises.
 SCF Done:  E(RHF) =  -998.147059211     A.U. after    1 cycles
            NFock=  1  Conv=0.96D-09     -V/T= 2.0007
 ExpMin= 3.27D-02 ExpMax= 2.12D+05 ExpMxC= 2.04D+03 IAcc=3 IRadAn=         5 AccDes= 0.00D+00
 HarFok:  IExCor=  205 AccDes= 0.00D+00 IRadAn=         5 IDoV=-2 UseB2=F ITyADJ=14
 ICtDFT= 12500011 ScaDFX=  1.000000  1.000000  1.000000  1.000000
 Range of M.O.s used for correlation:    12   107
 NBasis=   107 NAE=    19 NBE=    19 NFC=    11 NFV=     0
 NROrb=     96 NOA=     8 NOB=     8 NVA=    88 NVB=    88
 Disk-based method using ON**2 memory for  8 occupieds at a time.
 Permanent disk used for amplitudes=     3450172 words.
 Estimated scratch disk usage=    28466405 words.
 Actual    scratch disk usage=    27720933 words.
 JobTyp=1 Pass  1:  I=  12 to  19 NPSUse=  2 ParTrn=T ParDer=T DoDerP=T.
 (rs|ai) integrals will be sorted in core.
 Spin components of T(2) and E(2):
     alpha-alpha T2 =       0.4589348640D-01 E2=     -0.1045442712D+00
     alpha-beta  T2 =       0.1977784781D+00 E2=     -0.5049189786D+00
     beta-beta   T2 =       0.4589348640D-01 E2=     -0.1045442712D+00
 ANorm=    0.1135590353D+01
 E2 =    -0.7140075209D+00 EUMP2 =    -0.99886106673201D+03
   2 Symmetry operations used in ECPInt.
 ECPInt:  NShTT=     703 NPrTT=    3029 LenC2=     698 LenP2D=    2542.
 LDataN:  DoStor=T MaxTD1= 7 Len=  274
 G2DrvN: will do     4 centers at a time, making    1 passes.
 Calling FoFCou, ICntrl=  3107 FMM=F I1Cent=   0 AccDes= 0.00D+00.
 End of G2Drv F.D. properties file   721 does not exist.
 End of G2Drv F.D. properties file   722 does not exist.
 End of G2Drv F.D. properties file   788 does not exist.
          IDoAtm=111
          Differentiating once with respect to electric field.
                with respect to dipole field.
          Differentiating once with respect to nuclear coordinates.
 Keep R1 ints in memory in symmetry-blocked form, NReq=25195559.
          There are    12 degrees of freedom in the 1st order CPHF.  IDoFFX=6 NUNeed=    12.
      9 vectors produced by pass  0 Test12= 1.39D-14 8.33D-09 XBig12= 1.76D+01 1.56D+00.
 AX will form     9 AO Fock derivatives at one time.
      9 vectors produced by pass  1 Test12= 1.39D-14 8.33D-09 XBig12= 5.19D+00 7.68D-01.
      9 vectors produced by pass  2 Test12= 1.39D-14 8.33D-09 XBig12= 3.92D-01 1.80D-01.
      9 vectors produced by pass  3 Test12= 1.39D-14 8.33D-09 XBig12= 3.12D-02 7.15D-02.
      9 vectors produced by pass  4 Test12= 1.39D-14 8.33D-09 XBig12= 1.25D-03 9.72D-03.
      9 vectors produced by pass  5 Test12= 1.39D-14 8.33D-09 XBig12= 4.45D-05 2.77D-03.
      9 vectors produced by pass  6 Test12= 1.39D-14 8.33D-09 XBig12= 1.13D-06 3.19D-04.
      9 vectors produced by pass  7 Test12= 1.39D-14 8.33D-09 XBig12= 1.40D-08 3.14D-05.
      9 vectors produced by pass  8 Test12= 1.39D-14 8.33D-09 XBig12= 2.45D-10 8.22D-06.
      5 vectors produced by pass  9 Test12= 1.39D-14 8.33D-09 XBig12= 5.79D-12 9.77D-07.
      3 vectors produced by pass 10 Test12= 1.39D-14 8.33D-09 XBig12= 6.08D-14 4.80D-08.
 InvSVY:  IOpt=1 It=  1 EMax= 1.55D-15
 Solved reduced A of dimension    89 with     9 vectors.
 End of Minotr F.D. properties file   721 does not exist.
 End of Minotr F.D. properties file   722 does not exist.
 End of Minotr F.D. properties file   788 does not exist.
 MDV=   536870912.
 Form MO integral derivatives with frozen-active canonical formalism.
 Discarding MO integrals.
 Reordered first order wavefunction length =      5591168
 In DefCFB: NBatch=  1 ICI= 19 ICA= 88 LFMax= 44
            Large arrays: LIAPS=    88736384 LIARS=    75467392 words.
 Semi-Direct transformation.
 ModeAB=           2 MOrb=            19 LenV=     536407387
 LASXX=     10151206 LTotXX=    10151206 LenRXX=    10151206
 LTotAB=    10440956 MaxLAS=    15755750 LenRXY=    15755750
 NonZer=    20302412 LenScr=    31232000 LnRSAI=           0
 LnScr1=           0 LExtra=           0 Total=     57138956
 MaxDsk=          -1 SrtSym=           F ITran=            4
 JobTyp=0 Pass  1:  I=   1 to  19.
 (rs|ai) integrals will be sorted in core.
 Spin components of T(2) and E(2):
     alpha-alpha T2 =       0.4589348640D-01 E2=     -0.1045442712D+00
     alpha-beta  T2 =       0.1977784781D+00 E2=     -0.5049189786D+00
     beta-beta   T2 =       0.4589348640D-01 E2=     -0.1045442712D+00
 ANorm=    0.1605967279D+01
 E2 =    -0.7140075209D+00 EUMP2 =    -0.99886106673201D+03
          IDoAtm=111
          Differentiating once with respect to electric field.
                with respect to dipole field.
          Differentiating once with respect to nuclear coordinates.
          There are     1 degrees of freedom in the 1st order CPHF.  IDoFFX=0 NUNeed=     1.
 LinEq1:  Iter=  0 NonCon=     1 RMS=1.57D-02 Max=2.31D-01 NDo=     1
 LinEq1:  Iter=  1 NonCon=     1 RMS=8.63D-03 Max=9.13D-02 NDo=     1
 LinEq1:  Iter=  2 NonCon=     1 RMS=4.37D-03 Max=5.46D-02 NDo=     1
 LinEq1:  Iter=  3 NonCon=     1 RMS=1.98D-03 Max=2.28D-02 NDo=     1
 LinEq1:  Iter=  4 NonCon=     1 RMS=5.20D-04 Max=6.19D-03 NDo=     1
 LinEq1:  Iter=  5 NonCon=     1 RMS=1.67D-04 Max=2.43D-03 NDo=     1
 LinEq1:  Iter=  6 NonCon=     1 RMS=9.54D-05 Max=1.49D-03 NDo=     1
 LinEq1:  Iter=  7 NonCon=     1 RMS=5.75D-05 Max=8.74D-04 NDo=     1
 LinEq1:  Iter=  8 NonCon=     1 RMS=2.08D-05 Max=2.55D-04 NDo=     1
 LinEq1:  Iter=  9 NonCon=     1 RMS=5.27D-06 Max=6.09D-05 NDo=     1
 LinEq1:  Iter= 10 NonCon=     1 RMS=1.17D-06 Max=1.29D-05 NDo=     1
 LinEq1:  Iter= 11 NonCon=     1 RMS=2.71D-07 Max=4.10D-06 NDo=     1
 LinEq1:  Iter= 12 NonCon=     1 RMS=6.44D-08 Max=8.00D-07 NDo=     1
 LinEq1:  Iter= 13 NonCon=     1 RMS=1.70D-08 Max=1.81D-07 NDo=     1
 LinEq1:  Iter= 14 NonCon=     1 RMS=5.72D-09 Max=5.60D-08 NDo=     1
 LinEq1:  Iter= 15 NonCon=     1 RMS=1.87D-09 Max=2.18D-08 NDo=     1
 LinEq1:  Iter= 16 NonCon=     1 RMS=4.31D-10 Max=5.04D-09 NDo=     1
 LinEq1:  Iter= 17 NonCon=     1 RMS=1.04D-10 Max=1.39D-09 NDo=     1
 LinEq1:  Iter= 18 NonCon=     0 RMS=2.34D-11 Max=2.67D-10 NDo=     1
 Linear equations converged to 1.000D-10 1.000D-09 after    18 iterations.
 End of Minotr F.D. properties file   721 does not exist.
 End of Minotr F.D. properties file   722 does not exist.
 End of Minotr F.D. properties file   788 does not exist.
 Symmetrizing basis deriv contribution to polar:
 IMax=3 JMax=2 DiffMx= 0.00D+00
 G2DrvN: will do     4 centers at a time, making    1 passes.
 Calling FoFCou, ICntrl=  3107 FMM=F I1Cent=   0 AccDes= 0.00D+00.
 End of G2Drv F.D. properties file   721 does not exist.
 End of G2Drv F.D. properties file   722 does not exist.
 End of G2Drv F.D. properties file   788 does not exist.
 R2 and R3 integrals will be kept in memory, NReq=    62010250.
 DD1Dir will call FoFMem   1 times, MxPair=       380
 NAB=   190 NAA=     0 NBB=     0.
 Discarding MO integrals.

 **********************************************************************

            Population analysis using the SCF Density.

 **********************************************************************

 Orbital symmetries:
       Occupied  (A') (A') (A') (A') (A') (A") (A') (A') (A') (A')
                 (A") (A') (A') (A') (A') (A") (A') (A") (A')
       Virtual   (A') (A") (A') (A') (A') (A") (A") (A') (A") (A')
                 (A') (A") (A') (A') (A') (A') (A') (A") (A") (A')
                 (A') (A') (A") (A') (A") (A') (A') (A') (A") (A')
                 (A') (A") (A') (A") (A') (A') (A") (A") (A') (A')
                 (A') (A") (A') (A') (A") (A") (A') (A') (A') (A")
                 (A") (A') (A') (A') (A") (A') (A") (A') (A') (A')
                 (A') (A') (A") (A') (A") (A') (A") (A') (A') (A")
                 (A") (A') (A') (A") (A') (A') (A") (A') (A') (A")
                 (A') (A") (A") (A') (A') (A') (A') (A')
 The electronic state is 1-A'.
 Alpha  occ. eigenvalues -- -183.42477 -21.59920 -20.51777 -20.50692 -17.96691
 Alpha  occ. eigenvalues --  -17.96572 -17.96549  -3.00500  -1.93737  -1.93124
 Alpha  occ. eigenvalues --   -1.92616  -1.16740  -1.14995  -0.49374  -0.48430
 Alpha  occ. eigenvalues --   -0.44667  -0.43542  -0.42312  -0.40131
 Alpha virt. eigenvalues --   -0.04316   0.03722   0.04259   0.08134   0.12214
 Alpha virt. eigenvalues --    0.12310   0.16297   0.16484   0.17191   0.18634
 Alpha virt. eigenvalues --    0.20917   0.21445   0.23043   0.29173   0.32974
 Alpha virt. eigenvalues --    0.61054   0.62986   0.65684   0.65817   0.68667
 Alpha virt. eigenvalues --    0.73333   0.75216   0.77140   0.78445   0.79176
 Alpha virt. eigenvalues --    0.81401   0.99139   1.01150   1.21296   1.35845
 Alpha virt. eigenvalues --    1.46236   1.53143   1.54816   1.55750   1.57294
 Alpha virt. eigenvalues --    1.58378   1.60482   1.82750   1.86444   1.90091
 Alpha virt. eigenvalues --    1.97222   2.01980   2.03859   2.13984   2.16339
 Alpha virt. eigenvalues --    2.19166   2.23778   2.31850   2.47954   2.48237
 Alpha virt. eigenvalues --    2.57004   2.57342   2.74530   2.76904   3.15841
 Alpha virt. eigenvalues --    3.16798   3.20052   3.24484   3.40447   3.41174
 Alpha virt. eigenvalues --    4.17083   4.33930   5.61903   5.62665   5.62816
 Alpha virt. eigenvalues --    5.63218   5.64364   5.64536   5.65253   5.67597
 Alpha virt. eigenvalues --    5.78466   5.79745   5.82403   5.84197   6.11978
 Alpha virt. eigenvalues --    6.16972   6.79727   6.81880   6.82818   6.82941
 Alpha virt. eigenvalues --    7.02470   7.03367   7.05407   7.13030   7.36811
 Alpha virt. eigenvalues --    7.54132  45.03985  45.07776
          Condensed to atoms (all electrons):
               1          2          3
     1  Ti  19.689077   0.386591   0.394437
     2  O    0.386591   8.363655   0.001187
     3  O    0.394437   0.001187   8.382838
 Mulliken charges:
               1
     1  Ti   1.529895
     2  O   -0.751433
     3  O   -0.778462
 Sum of Mulliken charges =   0.00000
 Mulliken charges with hydrogens summed into heavy atoms:
               1
     1  Ti   1.529895
     2  O   -0.751433
     3  O   -0.778462
 APT charges:
               1
     1  Ti   1.307254
     2  O   -0.667447
     3  O   -0.639807
 Sum of APT charges =   0.00000
 APT charges with hydrogens summed into heavy atoms:
               1
     1  Ti   1.307254
     2  O   -0.667447
     3  O   -0.639807
 Electronic spatial extent (au):  <R**2>=            204.8754
 Charge=              0.0000 electrons
 Dipole moment (field-independent basis, Debye):
    X=              0.2153    Y=              8.7803    Z=              0.0000  Tot=              8.7830
 Quadrupole moment (field-independent basis, Debye-Ang):
   XX=            -39.5442   YY=            -22.6466   ZZ=            -22.6433
   XY=             -0.4914   XZ=              0.0000   YZ=              0.0000
 Traceless Quadrupole moment (field-independent basis, Debye-Ang):
   XX=            -11.2662   YY=              5.6314   ZZ=              5.6348
   XY=             -0.4914   XZ=              0.0000   YZ=              0.0000
 Octapole moment (field-independent basis, Debye-Ang**2):
  XXX=              0.9194  YYY=             15.5120  ZZZ=              0.0000  XYY=              0.5237
  XXY=              9.4413  XXZ=              0.0000  XZZ=              0.2072  YZZ=              4.9638
  YYZ=              0.0000  XYZ=              0.0000
 Hexadecapole moment (field-independent basis, Debye-Ang**3):
 XXXX=           -202.9959 YYYY=            -53.0588 ZZZZ=            -20.6034 XXXY=             -2.9539
 XXXZ=              0.0000 YYYX=             -2.5512 YYYZ=              0.0000 ZZZX=              0.0000
 ZZZY=              0.0000 XXYY=            -42.1729 XXZZ=            -34.0164 YYZZ=            -11.9903
 XXYZ=              0.0000 YYXZ=              0.0000 ZZXY=             -0.7578
 N-N= 1.216177022499D+02 E-N=-2.609510282209D+03  KE= 9.974776671168D+02
 Symmetry A'   KE= 8.960975246784D+02
 Symmetry A"   KE= 1.013801424384D+02
  Exact polarizability:  60.021   1.399  29.119   0.000   0.000  20.038
 Approx polarizability:  43.914   0.821  31.230   0.000   0.000  16.749
   2 Symmetry operations used in ECPInt.
 ECPInt:  NShTT=     703 NPrTT=    3029 LenC2=     698 LenP2D=    2542.
 LDataN:  DoStor=T MaxTD1= 8 Len=  415
 Calling FoFJK, ICntrl=  10100127 FMM=F ISym2X=1 I1Cent= 0 IOpClX= 0 NMat=1 NMatS=1 NMatT=0.
 Full mass-weighted force constant matrix:
 Low frequencies ---   -5.4100    0.0022    0.0055    0.0065   85.5809  134.6290
 Low frequencies ---  325.4069  815.1756  923.2895
 Diagonal vibrational polarizability:
        7.6342785       1.4155150       0.0000000
 Harmonic frequencies (cm**-1), IR intensities (KM/Mole), Raman scattering
 activities (A**4/AMU), depolarization ratios for plane and unpolarized
 incident light, reduced masses (AMU), force constants (mDyne/A),
 and normal coordinates:
                      1                      2                      3
                     A'                     A'                     A'
 Frequencies --    324.2889               815.1743               923.2838
 Red. masses --     18.3378                18.9660                19.6239
 Frc consts  --      1.1362                 7.4255                 9.8561
 IR Inten    --      5.1242                51.8126               178.6626
  Atom  AN      X      Y      Z        X      Y      Z        X      Y      Z
     1  22     0.00   0.27   0.00    -0.18  -0.25   0.00    -0.30   0.15   0.00
     2   8    -0.54  -0.42   0.00    -0.19   0.17   0.00     0.74  -0.54   0.00
     3   8     0.55  -0.39   0.00     0.71   0.58   0.00     0.17   0.10   0.00

 -------------------
 - Thermochemistry -
 -------------------
 Temperature   298.150 Kelvin.  Pressure   1.00000 Atm.
 Atom     1 has atomic number 22 and mass  47.94795
 Atom     2 has atomic number  8 and mass  15.99491
 Atom     3 has atomic number  8 and mass  15.99491
 Molecular mass:    79.93778 amu.
 Principal axes and moments of inertia in atomic units:
                           1         2         3
     Eigenvalues --    68.57759 217.32735 285.90494
           X            0.99927  -0.03811   0.00000
           Y            0.03811   0.99927   0.00000
           Z            0.00000   0.00000   1.00000
 This molecule is an asymmetric top.
 Rotational symmetry number  1.
 Rotational temperatures (Kelvin)      1.26301     0.39854     0.30295
 Rotational constants (GHZ):          26.31678     8.30425     6.31238
 Zero-point vibrational energy      12338.0 (Joules/Mol)
                                    2.94884 (Kcal/Mol)
 Warning -- explicit consideration of   1 degrees of freedom as
           vibrations may cause significant error
 Vibrational temperatures:    466.58  1172.85  1328.40
          (Kelvin)
 
 Zero-point correction=                           0.004699 (Hartree/Particle)
 Thermal correction to Energy=                    0.008046
 Thermal correction to Enthalpy=                  0.008990
 Thermal correction to Gibbs Free Energy=        -0.021243
 Sum of electronic and zero-point Energies=           -998.856367
 Sum of electronic and thermal Energies=              -998.853021
 Sum of electronic and thermal Enthalpies=            -998.852076
 Sum of electronic and thermal Free Energies=         -998.882310
 
                     E (Thermal)             CV                S
                      KCal/Mol        Cal/Mol-Kelvin    Cal/Mol-Kelvin
 Total                    5.049              8.684             63.632
 Electronic               0.000              0.000              0.000
 Translational            0.889              2.981             39.051
 Rotational               0.889              2.981             22.970
 Vibrational              3.272              2.722              1.611
 Vibration     1          0.709              1.627              1.288
                       Q            Log10(Q)             Ln(Q)
 Total Bot       0.590483D+10          9.771207         22.499036
 Total V=0       0.856496D+12         11.932725         27.476116
 Vib (Bot)       0.899540D-02         -2.045980         -4.711042
 Vib (Bot)    1  0.578182D+00         -0.237935         -0.547866
 Vib (V=0)       0.130478D+01          0.115539          0.266038
 Vib (V=0)    1  0.126439D+01          0.101882          0.234591
 Electronic      0.100000D+01          0.000000          0.000000
 Translational   0.280920D+08          7.448582         17.150994
 Rotational      0.233671D+05          4.368605         10.059084
 ***** Axes restored to original set *****
 -------------------------------------------------------------------
 Center     Atomic                   Forces (Hartrees/Bohr)
 Number     Number              X              Y              Z
 -------------------------------------------------------------------
      1       22           0.025503077    0.000000000   -0.008352847
      2        8          -0.000010116    0.000000000    0.000049324
      3        8          -0.025492961    0.000000000    0.008303522
 -------------------------------------------------------------------
 Cartesian Forces:  Max     0.025503077 RMS     0.012644802
 -----------------------------------------------------------------------------------------------
                       Internal Coordinate Forces (Hartree/Bohr or radian)
  Cent   Atom   N1       Length/X         N2         Alpha/Y        N3         Beta/Z          J
 -----------------------------------------------------------------------------------------------
      1  Ti
      2  O        1   0.000049(     1)
      3  O        1  -0.026811(     2)      2   0.000032(     3)
 -----------------------------------------------------------------------------------------------
 Internal  Forces:  Max     0.026811181 RMS     0.015479480

 GradGradGradGradGradGradGradGradGradGradGradGradGradGradGradGradGradGrad
 Berny optimization.
 Search for a local minimum.
 Step number   1 out of a maximum of    2
 All quantities printed in internal units (Hartrees-Bohrs-Radians)
 Second derivative matrix not updated -- analytic derivatives used.
 The second derivative matrix:
                          R1        A1        R2
           R1           0.37981
           A1          -0.00439   0.22652
           R2           0.00451  -0.00452   0.30418
 ITU=  0
     Eigenvalues ---    0.22639   0.379941000.00000
 Angle between quadratic step and forces=  14.59 degrees.
 Linear search not attempted -- first point.
 Variable       Old X    -DE/DX   Delta X   Delta X   Delta X     New X
                                 (Linear)    (Quad)   (Total)
    R1        3.17993   0.00005   0.00000   0.00013   0.00013   3.18006
    A1        1.88605   0.00003   0.00000   0.00014   0.00014   1.88619
    R2        3.25978  -0.02681   0.00000   0.00000   0.00000   3.25978
         Item               Value     Threshold  Converged?
 Maximum Force            0.000049     0.000450     YES
 RMS     Force            0.000042     0.000300     YES
 Maximum Displacement     0.000144     0.001800     YES
 RMS     Displacement     0.000113     0.001200     YES
 Predicted change in Energy=-5.565832D-09
 Optimization completed.
    -- Stationary point found.
                       ----------------------------
                       !   Optimized Parameters   !
                       ! (Angstroms and Degrees)  !
 ----------------------                            ----------------------
 !      Name          Value   Derivative information (Atomic Units)     !
 ------------------------------------------------------------------------
 !       R1          1.6827   -DE/DX =    0.0                           !
 !       A1        108.0624   -DE/DX =    0.0                           !
 !       R2          1.725    -DE/DX =   -0.0268                        !
 ------------------------------------------------------------------------
 GradGradGradGradGradGradGradGradGradGradGradGradGradGradGradGradGradGrad


 ----------------------------------------------------------------------

 Electric dipole moment (input orientation):
 (Debye = 10**-18 statcoulomb cm , SI units = C m)
                  (au)            (Debye)         (10**-30 SI)
   Tot        0.257610D+01      0.654778D+01      0.218411D+02
   x         -0.213303D+01     -0.542163D+01     -0.180846D+02
   y          0.000000D+00      0.000000D+00      0.000000D+00
   z         -0.144445D+01     -0.367143D+01     -0.122466D+02

 Dipole polarizability, Alpha (input orientation).
 (esu units = cm**3 , SI units = C**2 m**2 J**-1)
 Alpha(0;0):
               (au)            (10**-24 esu)      (10**-40 SI)
   iso        0.363928D+02      0.539285D+01      0.600036D+01
   aniso      0.363847D+02      0.539166D+01      0.599903D+01
   xx         0.405952D+02      0.601559D+01      0.669325D+01
   yx         0.000000D+00      0.000000D+00      0.000000D+00
   yy         0.200382D+02      0.296936D+01      0.330385D+01
   zx        -0.149960D+02     -0.222218D+01     -0.247251D+01
   zy         0.000000D+00      0.000000D+00      0.000000D+00
   zz         0.485449D+02      0.719361D+01      0.800397D+01

 ----------------------------------------------------------------------

 Dipole orientation:
    22          0.00000000          0.00000000          0.00000000
     8         -2.63301130          0.00000000         -1.78302809
     8          2.57459942          0.00000000         -1.99939681

 Electric dipole moment (dipole orientation):
 (Debye = 10**-18 statcoulomb cm , SI units = C m)
                  (au)            (Debye)         (10**-30 SI)
   Tot        0.257610D+01      0.654778D+01      0.218411D+02
   x          0.000000D+00      0.000000D+00      0.000000D+00
   y          0.000000D+00      0.000000D+00      0.000000D+00
   z          0.257610D+01      0.654778D+01      0.218411D+02

 Dipole polarizability, Alpha (dipole orientation).
 (esu units = cm**3 , SI units = C**2 m**2 J**-1)
 Alpha(0;0):
               (au)            (10**-24 esu)      (10**-40 SI)
   iso        0.363928D+02      0.539285D+01      0.600036D+01
   aniso      0.363847D+02      0.539166D+01      0.599903D+01
   xx         0.599701D+02      0.888665D+01      0.988773D+01
   yx         0.000000D+00      0.000000D+00      0.000000D+00
   yy         0.200382D+02      0.296936D+01      0.330385D+01
   zx        -0.187571D+01     -0.277951D+00     -0.309262D+00
   zy         0.000000D+00      0.000000D+00      0.000000D+00
   zz         0.291700D+02      0.432255D+01      0.480949D+01

 ----------------------------------------------------------------------
 1|1|UNPC-DESKTOP-F4NP0R6|Freq|RMP2-FC|def2TZVP|O2Ti1|GARRETT|22-Jul-20
 18|1||#N Geom=AllCheck Guess=TCheck SCRF=Check GenChk RMP2(FC)/def2TZV
 P Freq||TiO21a1||0,1|Ti|O,1,R1|O,1,R2,2,A1||R1=1.68274506|A1=108.06244
 804|R2=1.725||Version=EM64W-G16RevB.01|State=1-A'|HF=-998.1470592|MP2=
 -998.8610667|RMSD=9.637e-010|RMSF=1.264e-002|ZeroPoint=0.0046993|Therm
 al=0.0080461|Dipole=-2.1330336,0.,-1.4444521|DipoleDeriv=0.9408427,0.,
 -0.7921463,0.,1.361267,0.,-0.8548485,0.,1.619653,-0.3675741,0.,0.21352
 08,0.,-0.6729986,0.,0.5789658,0.,-0.9617691,-0.5732687,0.,0.5786255,0.
 ,-0.6882684,0.,0.2758827,0.,-0.6578839|Polar=40.5952339,0.,20.0382085,
 -14.9960015,0.,48.5448579|PG=CS [SG(O2Ti1)]|NImag=0||0.31723234,0.,0.0
 0821780,-0.05342434,0.,0.43470522,-0.03051101,0.,-0.02171242,0.0223854
 2,0.,0.00001128,0.,0.,-0.00001417,-0.00608100,0.,-0.37969370,0.0013774
 5,0.,0.37981103,-0.28672132,0.,0.07513677,0.00812559,0.,0.00470355,0.2
 7859574,0.,-0.00822909,0.,0.,0.00000289,0.,0.,0.00822620,0.05950534,0.
 ,-0.05501151,0.02033497,0.,-0.00011733,-0.07984031,0.,0.05512885||-0.0
 2550308,0.,0.00835285,0.00001012,0.,-0.00004932,0.02549296,0.,-0.00830
 352|||@


 BRING ME INTO THE COMPANY OF THOSE WHO SEEK TRUTH,
 AND DELIVER ME FROM THOSE WHO HAVE FOUND IT.
 Job cpu time:       0 days  0 hours  6 minutes 24.0 seconds.
 Elapsed time:       0 days  0 hours  6 minutes 11.6 seconds.
 File lengths (MBytes):  RWF=   1341 Int=      0 D2E=      0 Chk=      2 Scr=      1
 Normal termination of Gaussian 16 at Sun Jul 22 15:24:06 2018.
